# Kim, K. U., Elliott, G. S., and Dutton, J. C., “A Three-Dimensional Experimental Study of Compressibility Effects on Turbulent Free Shear Layers,” AIAA Aviation Conference, Atlanta, GA, 2018.
# This work was funded by the NASA Aeronautics Mission Directorate's Transformative Aeronautics Concepts Program, Transformational Tools and Technologies Project; Grant Number NNX15AU94A.
VARIABLES = "z (mm)", "y (mm)", "U (m/s)", "V (m/s)", "W (m/s)", "|V| (m/s)"
ZONE T="Frame 0", I=208, J=142, F=POINT
45.7622667998 24.9482277483 304.6444813346 -2.6715741461 5.2076735542 304.7007009836
45.2996739894 24.9482277483 304.5760149493 -2.7233980085 5.0035854104 304.6292856015
44.8370811790 24.9482277483 304.4624989787 -2.7497274855 4.8004025924 304.5127553168
44.3744883686 24.9482277483 304.2852248848 -2.7435542002 4.6687994665 304.3334074027
43.9118955582 24.9482277483 304.0782056961 -2.7211054815 4.5680326214 304.1246890938
43.4493027478 24.9482277483 303.9179148323 -2.6859189398 4.4388596159 303.9621959904
42.9867099375 24.9482277483 303.8313383297 -2.6547447135 4.2595920334 303.8727923737
42.5241171271 24.9482277483 303.7183383644 -2.6355880844 4.0313905985 303.7565266683
42.0615243167 24.9482277483 303.5551394389 -2.6414583700 3.7596345117 303.5899122727
41.5989315063 24.9482277483 303.4035861124 -2.6444332662 3.4283533441 303.4344784296
41.1363386959 24.9482277483 303.2878116759 -2.6297396724 3.0987033075 303.3150411768
40.6737458855 24.9482277483 303.2007188505 -2.6104124019 2.8675814722 303.2255153971
40.2111530751 24.9482277483 303.1068027085 -2.5835908106 2.6753601640 303.1296197036
39.7485602647 24.9482277483 302.9410161383 -2.5627282110 2.4520212946 302.9617785187
39.2859674543 24.9482277483 302.7447641995 -2.5433316047 2.2502966916 302.7638099593
38.8233746439 24.9482277483 302.5774830886 -2.5340162479 2.0935456061 302.5953361237
38.3607818335 24.9482277483 302.4950918462 -2.5401054602 1.9646286610 302.5121361079
37.8981890231 24.9482277483 302.4564447919 -2.5587549098 1.8379234108 302.4728519806
37.4355962127 24.9482277483 302.4021090473 -2.5658454920 1.7346227461 302.4179691014
36.9730034024 24.9482277483 302.3324476200 -2.5615663344 1.6544201018 302.3478255451
36.5104105920 24.9482277483 302.2671841009 -2.5216223444 1.6320103120 302.2821076763
36.0478177816 24.9482277483 302.2330768672 -2.4759400565 1.6229498938 302.2475756696
35.5852249712 24.9482277483 302.2056852665 -2.4292407978 1.5921105971 302.2196423703
35.1226321608 24.9482277483 302.1681716021 -2.3772392294 1.5512383506 302.1815042919
34.6600393504 24.9482277483 302.1341669166 -2.3112264671 1.4593188170 302.1465310037
34.1974465400 24.9482277483 302.1249486285 -2.2232799908 1.3466414721 302.1361299165
33.7348537296 24.9482277483 302.1303909474 -2.1481253877 1.2295245541 302.1405290711
33.2722609192 24.9482277483 302.1311149212 -2.0758779552 1.1326827013 302.1403694360
32.8096681088 24.9482277483 302.1366749310 -2.0108747623 1.0016417024 302.1450268361
32.3470752984 24.9482277483 302.1347455676 -1.9851830307 0.9002642560 302.1426085586
31.8844824880 24.9482277483 302.1243581991 -1.9536740890 0.8509956577 302.1318732827
31.4218896776 24.9482277483 302.0964431191 -1.9079693810 0.8214764881 302.1035850764
30.9592968673 24.9482277483 302.1273968494 -1.8144853570 0.7837941327 302.1338620832
30.4967040569 24.9482277483 302.1916457030 -1.7087514462 0.7426926484 302.1973893941
30.0341112465 24.9482277483 302.1878783190 -1.6336008480 0.7412123756 302.1932028529
29.5715184361 24.9482277483 302.1651734484 -1.6152229932 0.7597349732 302.1704455893
29.1089256257 24.9482277483 302.1738242648 -1.6145329280 0.6737799851 302.1788886849
28.6463328153 24.9482277483 302.1745301859 -1.5649471909 0.4906166888 302.1789808334
28.1837400049 24.9482277483 302.1594479235 -1.4754310820 0.3723549499 302.1632795601
27.7211471945 24.9482277483 302.1331134401 -1.3814456739 0.4076459009 302.1365466215
27.2585543841 24.9482277483 302.1110517872 -1.2963432954 0.5458083157 302.1143260830
26.7959615737 24.9482277483 302.1181841705 -1.2175088646 0.6619690455 302.1213625968
26.3333687633 24.9482277483 302.1906926416 -1.1659987779 0.6099470819 302.1935576875
25.8707759529 24.9482277483 302.2831497951 -1.1465842959 0.4424685702 302.2856481609
25.4081831425 24.9482277483 302.3475838756 -1.1165141234 0.3028423370 302.3497970773
24.9455903322 24.9482277483 302.3781378283 -1.0134196511 0.1891384311 302.3798952134
24.4829975218 24.9482277483 302.3945589129 -0.8749640337 0.0947274218 302.3958395803
24.0204047114 24.9482277483 302.3804479159 -0.7771831748 0.0981522401 302.3814626087
23.5578119010 24.9482277483 302.3307557846 -0.7299968062 0.1936374419 302.3316991056
23.0952190906 24.9482277483 302.2686247208 -0.6973862801 0.3037128909 302.2695817970
22.6326262802 24.9482277483 302.2441621181 -0.6800828056 0.3633437038 302.2451456447
22.1700334698 24.9482277483 302.2934311721 -0.6595552879 0.3625426845 302.2943680920
21.7074406594 24.9482277483 302.4144802267 -0.5795949091 0.3794357125 302.4152736759
21.2448478490 24.9482277483 302.5405736003 -0.4836521809 0.3801044297 302.5411989684
20.7822550386 24.9482277483 302.6298924325 -0.4057618540 0.3436134476 302.6303595256
20.3196622282 24.9482277483 302.6503817711 -0.3510074063 0.3219223561 302.6507565271
19.8570694178 24.9482277483 302.6288460335 -0.2907062510 0.3089513031 302.6291433629
19.3944766074 24.9482277483 302.6116182197 -0.2170657857 0.3350952142 302.6118816039
18.9318837970 24.9482277483 302.6102749991 -0.1626715447 0.4217367579 302.6106126013
18.4692909867 24.9482277483 302.6525569382 -0.1001372575 0.5693318709 302.6531090002
18.0066981763 24.9482277483 302.7113383494 -0.0126537597 0.6919186233 302.7121293850
17.5441053659 24.9482277483 302.7662853607 0.0861451148 0.7581460269 302.7672468374
17.0815125555 24.9482277483 302.7902578175 0.1541780690 0.7559649834 302.7912407635
16.6189197451 24.9482277483 302.8104516135 0.2021126123 0.6833181492 302.8112900464
16.1563269347 24.9482277483 302.8222042300 0.1743598970 0.5691819048 302.8227893408
15.6937341243 24.9482277483 302.8705152387 0.1139205914 0.5461753858 302.8710291302
15.2311413139 24.9482277483 302.9244099915 0.0642056334 0.5690509135 302.9249512833
14.7685485035 24.9482277483 302.9465701898 0.0840060668 0.5563878675 302.9470927641
14.3059556931 24.9482277483 302.8952483933 0.1429858122 0.5047698052 302.8957027373
13.8433628827 24.9482277483 302.8130547880 0.2044746134 0.5010263170 302.8135383157
13.3807700723 24.9482277483 302.8098871558 0.2553673743 0.5884661637 302.8105666324
12.9181772619 24.9482277483 302.9047865588 0.2892760232 0.7439267810 302.9058382202
12.4555844516 24.9482277483 303.0261789420 0.3278886442 0.9047672125 303.0277070481
11.9929916412 24.9482277483 303.0787356495 0.3866852559 1.0188506308 303.0806948405
11.5303988308 24.9482277483 303.0633550057 0.4466273350 1.0259223438 303.0654205612
11.0678060204 24.9482277483 303.0664714296 0.4501286330 0.9825450819 303.0683984110
10.6052132100 24.9482277483 303.1159476999 0.4387362341 0.9438533038 303.1177347147
10.1426203996 24.9482277483 303.1846979714 0.4507574657 0.9126744378 303.1864067548
9.6800275892 24.9482277483 303.2166675455 0.4822803110 0.9118663456 303.2184222172
9.2174347788 24.9482277483 303.1825159440 0.5052952959 0.9989597936 303.1845827514
8.7548419684 24.9482277483 303.1060810851 0.5185912149 1.1843753012 303.1088386578
8.2922491580 24.9482277483 303.0339515079 0.5377030257 1.3364068202 303.0373753751
7.8296563476 24.9482277483 303.0116226804 0.5746653969 1.3962645111 303.0153845506
7.3670635372 24.9482277483 303.0410505325 0.5934704097 1.4003713506 303.0448672307
6.9044707268 24.9482277483 303.0729015055 0.5727712910 1.3676629675 303.0765286127
6.4418779165 24.9482277483 303.0935043945 0.5440878964 1.3305175918 303.0969130738
5.9792851061 24.9482277483 303.0867753768 0.4944041044 1.2943210676 303.0899422791
5.5166922957 24.9482277483 303.0377284054 0.4226714026 1.2849018847 303.0407471960
5.0540994853 24.9482277483 302.9632011309 0.3563485629 1.2836522975 302.9661300987
4.5915066749 24.9482277483 302.9426909876 0.3146773984 1.3374516147 302.9458067403
4.1289138645 24.9482277483 302.9125356866 0.3315486652 1.4257105238 302.9160722892
3.6663210541 24.9482277483 302.8725375907 0.4329733891 1.4468065863 302.8763027077
3.2037282437 24.9482277483 302.8514975293 0.5685279491 1.3694261890 302.8551272603
2.7411354333 24.9482277483 302.8648635965 0.6663683548 1.2615695146 302.8682241598
2.2785426229 24.9482277483 302.8754606174 0.6826573690 1.2576606846 302.8788410828
1.8159498125 24.9482277483 302.8575838362 0.5798962367 1.4410888305 302.8615675582
1.3533570021 24.9482277483 302.7980642502 0.3940070267 1.6544511270 302.8028404155
0.8907641917 24.9482277483 302.7530586970 0.1755446011 1.7626998789 302.7582409731
0.4281713814 24.9482277483 302.7399774690 -0.0157582929 1.7327763208 302.7449367373
-0.0344214290 24.9482277483 302.7221873693 -0.0767942047 1.6361294911 302.7266184906
-0.4970142394 24.9482277483 302.6566759595 -0.0219469039 1.5857787191 302.6608310942
-0.9596070498 24.9482277483 302.5464517493 0.0819553957 1.6509166024 302.5509671253
-1.4221998602 24.9482277483 302.4340211784 0.1604159232 1.8009170649 302.4394256734
-1.8847926706 24.9482277483 302.3848475162 0.1979511074 1.9106293557 302.3909484369
-2.3473854810 24.9482277483 302.3983696047 0.1973105379 1.9219198126 302.4045413793
-2.8099782914 24.9482277483 302.4422801440 0.1674409602 1.8412763508 302.4479313102
-3.2725711018 24.9482277483 302.5189896368 0.1274177016 1.6813835985 302.5236889517
-3.7351639122 24.9482277483 302.6077965309 0.0583844178 1.5473328515 302.6117581473
-4.1977567226 24.9482277483 302.6070528784 -0.0220201069 1.4141835051 302.6103581367
-4.6603495330 24.9482277483 302.4998104087 -0.1003723965 1.3893454061 302.5030175925
-5.1229423434 24.9482277483 302.3428058849 -0.1294253426 1.5140678253 302.3466246258
-5.5855351537 24.9482277483 302.1955686970 -0.1557942361 1.7672733399 302.2007764170
-6.0481279641 24.9482277483 302.1033135225 -0.2178767669 1.9737047234 302.1098393331
-6.5107207745 24.9482277483 302.0748169407 -0.3024894825 2.0608927478 302.0819984848
-6.9733135849 24.9482277483 302.1080971059 -0.3708060485 2.0759020977 302.1154567440
-7.4359063953 24.9482277483 302.1251454649 -0.4156653681 2.0424879014 302.1323353378
-7.8984992057 24.9482277483 302.1109920266 -0.4321276112 1.9762654764 302.1177648911
-8.3610920161 24.9482277483 302.0706314303 -0.4458461811 1.8650368222 302.0767179275
-8.8236848265 24.9482277483 302.0323046483 -0.4746046427 1.7534207190 302.0377671500
-9.2862776369 24.9482277483 301.9739369129 -0.5355694621 1.7565690408 301.9795207363
-9.7488704473 24.9482277483 301.8777844510 -0.6119364276 1.8879131033 301.8843080174
-10.2114632577 24.9482277483 301.7812618152 -0.6889650423 2.0048050487 301.7887073747
-10.6740560681 24.9482277483 301.7191190147 -0.6822153640 2.0828158620 301.7270791937
-11.1366488785 24.9482277483 301.7299215083 -0.6498303609 2.0398577680 301.7375164487
-11.5992416888 24.9482277483 301.7892742297 -0.6226449327 1.8883360136 301.7958242582
-12.0618344992 24.9482277483 301.8819635520 -0.6757428650 1.7433550291 301.8877536986
-12.5244273096 24.9482277483 301.9493070602 -0.7884990985 1.7408344435 301.9553547622
-12.9870201200 24.9482277483 301.9450256422 -0.8552227046 1.8618601731 301.9519770415
-13.4496129304 24.9482277483 301.8955827374 -0.8612108417 1.9789303838 301.9032969776
-13.9122057408 24.9482277483 301.8616614679 -0.7867606827 2.0145295781 301.8694088276
-14.3747985512 24.9482277483 301.8328290301 -0.7526440052 2.0298486924 301.8405927621
-14.8373913616 24.9482277483 301.8206089293 -0.7998615593 2.0464503943 301.8286065173
-15.2999841720 24.9482277483 301.8018187569 -0.8795426191 2.0767809328 301.8102457162
-15.7625769824 24.9482277483 301.8064363794 -0.9166089225 2.0502703209 301.8147922490
-16.2251697928 24.9482277483 301.8448411062 -0.9254584849 2.0077160075 301.8529368739
-16.6877626032 24.9482277483 301.8424594836 -0.9364364953 2.0534736742 301.8508969914
-17.1503554136 24.9482277483 301.8426569263 -1.0025416683 2.2026556764 301.8523584837
-17.6129482239 24.9482277483 301.8148342209 -1.0023984978 2.2782134805 301.8250970598
-18.0755410343 24.9482277483 301.8084501890 -0.9434586623 2.3180481907 301.8188265618
-18.5381338447 24.9482277483 301.8311286463 -0.9161242407 2.3131466551 301.8413824362
-19.0007266551 24.9482277483 301.8294557142 -0.9246361297 2.2796417863 301.8394806108
-19.4633194655 24.9482277483 301.8779096703 -0.9663228717 2.2348031294 301.8877282565
-19.9259122759 24.9482277483 301.9391610290 -0.9460859865 2.3042030914 301.9494351600
-20.3885050863 24.9482277483 302.0415670033 -0.8927955233 2.4648086534 302.0529433118
-20.8510978967 24.9482277483 302.0845622563 -0.8279853572 2.6618364215 302.0974241639
-21.3136907071 24.9482277483 302.1354800345 -0.9155527732 2.6945547842 302.1488824372
-21.7762835175 24.9482277483 302.1412831862 -0.9813131309 2.5370203161 302.1535279505
-22.2388763279 24.9482277483 302.0435064658 -0.9159337263 2.1629854327 302.0526398473
-22.7014691383 24.9482277483 301.8703847508 -0.6625091501 2.0053281777 301.8777723667
-23.1640619487 24.9482277483 301.8537865115 -0.4506875011 2.2534556358 301.8625342981
-23.6266547590 24.9482277483 302.1614204061 -0.4882866407 2.8548381956 302.1753009543
-24.0892475694 24.9482277483 302.5653059929 -0.6959448984 3.4117205482 302.5853409651
-24.5518403798 24.9482277483 302.6878532867 -0.6904692586 3.5528554175 302.7094911903
-25.0144331902 24.9482277483 302.6257931587 -0.5037934406 3.3451740592 302.6447004034
-25.4770260006 24.9482277483 302.3982122580 -0.2742790420 3.0064735408 302.4132816015
-25.9396188110 24.9482277483 302.3492114373 -0.1948326588 2.9573915210 302.3637375432
-26.4022116214 24.9482277483 302.3193171792 -0.1842485598 2.9459613212 302.3337264933
-26.8648044318 24.9482277483 302.3681383075 -0.2427413318 2.9780358992 302.3829007809
-27.3273972422 24.9482277483 302.3993485430 -0.3138712667 3.0843447423 302.4152405169
-27.7899900526 24.9482277483 302.4421678594 -0.3022400997 3.1954167890 302.4591987972
-28.2525828630 24.9482277483 302.4806764212 -0.3060035945 3.1952420242 302.4977071286
-28.7151756734 24.9482277483 302.4332438327 -0.2222426142 3.1401094557 302.4496266394
-29.1777684838 24.9482277483 302.4047165926 -0.1274931055 3.1105110370 302.4207402789
-29.6403612942 24.9482277483 302.4073310778 -0.1046904264 3.1083454387 302.4233236062
-30.1029541045 24.9482277483 302.5129285598 -0.0995583475 3.2057330971 302.5299300604
-30.5655469149 24.9482277483 302.5902535087 -0.1820586124 3.3379542588 302.6087186491
-31.0281397253 24.9482277483 302.5708534877 -0.1156301970 3.3453032012 302.5893682933
-31.4907325357 24.9482277483 302.5565451751 -0.1290707644 3.3251580739 302.5748442349
-31.9533253461 24.9482277483 302.4946014015 -0.0177053843 3.3105761652 302.5127172618
-32.4159181565 24.9482277483 302.3675172465 0.1105374427 3.3136768953 302.3856943688
-32.8785109669 24.9482277483 302.3186236233 0.1323912832 3.4131290318 302.3379188370
-33.3411037773 24.9482277483 302.3535668792 0.0566012881 3.5626783797 302.3745612407
-33.8036965877 24.9482277483 302.3491419544 -0.0742398274 3.5855812119 302.3704111595
-34.2662893981 24.9482277483 302.3812314611 -0.1904269982 3.5115808320 302.4016808854
-34.7288822085 24.9482277483 302.2958396337 -0.3118601001 3.4627598521 302.3158325698
-35.1914750189 24.9482277483 302.3199522695 -0.2841202014 3.5076941911 302.3404342509
-35.6540678293 24.9482277483 302.3663659858 -0.2280609648 3.4825799327 302.3865070638
-36.1166606396 24.9482277483 302.3666493125 -0.2301316467 3.4933845464 302.3869165699
-36.5792534500 24.9482277483 302.3701352596 -0.2465924339 3.4763500253 302.3902189460
-37.0418462604 24.9482277483 302.3894668430 -0.2681583490 3.4086208289 302.4087966023
-37.5044390708 24.9482277483 302.2726017769 -0.3640170685 3.5001540109 302.2930852195
-37.9670318812 24.9482277483 302.1845979582 -0.4434047308 3.5624206019 302.2059210066
-38.4296246916 24.9482277483 302.0656687204 -0.3504327372 3.5764033468 302.0870432235
-38.8922175020 24.9482277483 302.0263623341 -0.2673353122 3.4873996700 302.0466139015
-39.3548103124 24.9482277483 302.0667443723 -0.2917791355 3.4285507505 302.0863422119
-39.8174031228 24.9482277483 302.0622602886 -0.3599608896 3.2888203682 302.0803783796
-40.2799959332 24.9482277483 302.0774525435 -0.4565029360 3.2031253788 302.0947794026
-40.7425887436 24.9482277483 302.0539861467 -0.5747661599 3.1174741418 302.0706201342
-41.2051815540 24.9482277483 302.0511092427 -0.6042758442 3.0970203612 302.0675905806
-41.6677743644 24.9482277483 301.9360989598 -0.6156404126 2.9492450384 301.9511300103
-42.1303671747 24.9482277483 301.9294304438 -0.7111179203 2.9471935414 301.9446515615
-42.5929599851 24.9482277483 301.8504453741 -0.8522022676 2.8809701184 301.8653965099
-43.0555527955 24.9482277483 301.7853976216 -0.9605804925 2.7609004490 301.7995551750
-43.5181456059 24.9482277483 301.7342513520 -0.9717605850 2.6934214328 301.7478372360
-43.9807384163 24.9482277483 301.6758047660 -0.9574054196 2.5605596398 301.6881904749
-44.4433312267 24.9482277483 301.7740782779 -0.9590137291 2.5232190844 301.7861505476
-44.9059240371 24.9482277483 301.7285519321 -1.1602790247 2.4738531801 301.7409240524
-45.3685168475 24.9482277483 301.8158454479 -1.2589578633 2.5003769085 301.8288280185
-45.8311096579 24.9482277483 301.7691295133 -1.4976870607 2.4350238056 301.7826700370
-46.2937024683 24.9482277483 301.7445694729 -1.5144035080 2.4615564837 301.7584097994
-46.7562952787 24.9482277483 301.5160599202 -1.5081462286 2.2532696705 301.5282509469
-47.2188880891 24.9482277483 301.4438510606 -1.5211463356 2.1123914529 301.4550902309
-47.6814808995 24.9482277483 301.4702453186 -1.6266307531 2.0064579131 301.4813105541
-48.1440737098 24.9482277483 301.4775822138 -1.5829354017 1.8641375535 301.4875010192
-48.6066665202 24.9482277483 301.4455313846 -1.6640842219 1.7114243452 301.4549826116
-49.0692593306 24.9482277483 301.5956176554 -1.8363348350 1.6702250404 301.6058327789
-49.5318521410 24.9482277483 301.6024180707 -2.1542522858 1.6920982348 301.6148580316
-49.9944449514 24.9482277483 301.5161049843 -2.3911513302 1.6345444985 301.5300165909
45.7622667998 24.4856349379 304.6031282175 -2.6027907048 5.1241843424 304.6573444125
45.2996739894 24.4856349379 304.5079817796 -2.6343785189 4.9279446482 304.5592480227
44.8370811790 24.4856349379 304.4171120699 -2.6451278467 4.7749698924 304.4660492727
44.3744883686 24.4856349379 304.2884633974 -2.6519578286 4.6375740072 304.3353560298
43.9118955582 24.4856349379 304.1224776100 -2.6452986349 4.5233887540 304.1676183264
43.4493027478 24.4856349379 303.9557371093 -2.6295108621 4.3707588097 303.9985328610
42.9867099375 24.4856349379 303.8539547544 -2.6215758844 4.1546314618 303.8936646964
42.5241171271 24.4856349379 303.7303988771 -2.6229732253 3.9063333586 303.7668425469
42.0615243167 24.4856349379 303.5807481116 -2.6151251767 3.6310909820 303.6137255221
41.5989315063 24.4856349379 303.4257609397 -2.5921919864 3.2920023242 303.4546904242
41.1363386959 24.4856349379 303.3006831730 -2.5658745505 2.9861313174 303.3262354391
40.6737458855 24.4856349379 303.2064153674 -2.5541518154 2.7547747359 303.2296865337
40.2111530751 24.4856349379 303.0853927860 -2.5496516161 2.5875424638 303.1071616106
39.7485602647 24.4856349379 302.9115374740 -2.5074499688 2.4266870206 302.9316352745
39.2859674543 24.4856349379 302.7310581153 -2.4691710490 2.2565152244 302.7495371000
38.8233746439 24.4856349379 302.5726284141 -2.4445805306 2.0792499181 302.5896474098
38.3607818335 24.4856349379 302.4923139448 -2.4360031413 1.9028899998 302.5081074903
37.8981890231 24.4856349379 302.4600412226 -2.4586576234 1.7330430822 302.4749989206
37.4355962127 24.4856349379 302.4128487312 -2.4950632701 1.6060917197 302.4274060813
36.9730034024 24.4856349379 302.3467922408 -2.5081365180 1.5353681284 302.3610935329
36.5104105920 24.4856349379 302.2819686666 -2.4750963058 1.5166026665 302.2959059702
36.0478177816 24.4856349379 302.2489831762 -2.4320712736 1.5136239849 302.2625578190
35.5852249712 24.4856349379 302.2215176599 -2.3908579486 1.5048142174 302.2347207125
35.1226321608 24.4856349379 302.1904543697 -2.3376199676 1.4403938967 302.2029283675
34.6600393504 24.4856349379 302.1607272221 -2.2606462568 1.3640797391 302.1722626424
34.1974465400 24.4856349379 302.1380604252 -2.1803055575 1.2876379743 302.1486708582
33.7348537296 24.4856349379 302.1341647177 -2.1104096935 1.1963999468 302.1439039457
33.2722609192 24.4856349379 302.1394158581 -2.0479127260 1.0827209195 302.1482961167
32.8096681088 24.4856349379 302.1411186489 -1.9812410974 0.9474141090 302.1490997640
32.3470752984 24.4856349379 302.1588774758 -1.9558752131 0.8266829724 302.1663384463
31.8844824880 24.4856349379 302.1453154570 -1.9458164250 0.7669740630 302.1525543552
31.4218896776 24.4856349379 302.1166857455 -1.9163942283 0.7533067642 302.1237028830
30.9592968673 24.4856349379 302.1267350721 -1.8285574445 0.7448506129 302.1331866414
30.4967040569 24.4856349379 302.1830592361 -1.7140167107 0.7092792747 302.1887526359
30.0341112465 24.4856349379 302.1764340242 -1.6284064668 0.6741495718 302.1815736686
29.5715184361 24.4856349379 302.1459782678 -1.5968410471 0.6539444564 302.1509055557
29.1089256257 24.4856349379 302.1510283872 -1.5878148418 0.5891893445 302.1557748174
28.6463328153 24.4856349379 302.1847486224 -1.5413264526 0.4204230983 302.1889719079
28.1837400049 24.4856349379 302.1967105831 -1.4646219043 0.3091450528 302.2004178939
27.7211471945 24.4856349379 302.2003869338 -1.3723517393 0.3429241309 302.2036975439
27.2585543841 24.4856349379 302.1773196879 -1.2789343887 0.4624621123 302.1803800350
26.7959615737 24.4856349379 302.1488877781 -1.2119820716 0.5666207225 302.1518498125
26.3333687633 24.4856349379 302.1817974173 -1.1932013718 0.5298988155 302.1846177631
25.8707759529 24.4856349379 302.2423941945 -1.1827016506 0.4103450256 302.2449867486
25.4081831425 24.4856349379 302.3225645722 -1.1327340502 0.2890099036 302.3248247542
24.9455903322 24.4856349379 302.3787143725 -1.0222754983 0.1852376832 302.3804991493
24.4829975218 24.4856349379 302.4124019129 -0.8946730348 0.0923710351 302.4137394415
24.0204047114 24.4856349379 302.4250016466 -0.8022663856 0.0556747972 302.4260708867
23.5578119010 24.4856349379 302.3853775200 -0.7552165152 0.0835344455 302.3863321446
23.0952190906 24.4856349379 302.3177604541 -0.7240670156 0.1503424354 302.3186649247
22.6326262802 24.4856349379 302.2673727447 -0.7256510827 0.2220141040 302.2683253100
22.1700334698 24.4856349379 302.2787545862 -0.7243283647 0.2812550601 302.2797532588
21.7074406594 24.4856349379 302.3750713223 -0.6655657211 0.3409645815 302.3759960575
21.2448478490 24.4856349379 302.5190809466 -0.5520733568 0.3375175275 302.5197729734
20.7822550386 24.4856349379 302.6379432665 -0.4473649165 0.2962723043 302.6384189379
20.3196622282 24.4856349379 302.6850168623 -0.3364267456 0.2838341770 302.6853369057
19.8570694178 24.4856349379 302.6763793122 -0.2177675411 0.2880165920 302.6765946845
19.3944766074 24.4856349379 302.6564763780 -0.1040099388 0.3281323564 302.6566721261
18.9318837970 24.4856349379 302.6569753548 -0.0133100808 0.4220178051 302.6572698732
18.4692909867 24.4856349379 302.7081862417 0.0330461592 0.5408168440 302.7086711554
18.0066981763 24.4856349379 302.7467572934 0.0740363275 0.6455078830 302.7474545120
17.5441053659 24.4856349379 302.7800941643 0.1097609117 0.7212480906 302.7809730951
17.0815125555 24.4856349379 302.7961266637 0.1302755869 0.7414650316 302.7970625100
16.6189197451 24.4856349379 302.7846552439 0.1251581069 0.6575269688 302.7853950530
16.1563269347 24.4856349379 302.7887669769 0.0963689559 0.5268754429 302.7892407139
15.6937341243 24.4856349379 302.8327992627 0.0740467089 0.4649585136 302.8331652554
15.2311413139 24.4856349379 302.8860875482 0.0799075417 0.4824755101 302.8864823628
14.7685485035 24.4856349379 302.9366785436 0.1238593505 0.5174746823 302.9371458376
14.3059556931 24.4856349379 302.8969027278 0.1781839451 0.5242681184 302.8974088510
13.8433628827 24.4856349379 302.8183941637 0.2345869713 0.5426452779 302.8189712333
13.3807700723 24.4856349379 302.8198263695 0.2811251072 0.6176328886 302.8205867245
12.9181772619 24.4856349379 302.9085381962 0.3394197256 0.7402216732 302.9096328050
12.4555844516 24.4856349379 303.0143445167 0.4151278372 0.8863068026 303.0159250828
11.9929916412 24.4856349379 303.0331813492 0.4611631496 1.0187405793 303.0352446539
11.5303988308 24.4856349379 302.9970450218 0.4821072423 1.0715145267 302.9993232050
11.0678060204 24.4856349379 302.9848737641 0.4816532185 1.0492682897 302.9870734596
10.6052132100 24.4856349379 303.0510177589 0.4780757394 0.9747061330 303.0529623237
10.1426203996 24.4856349379 303.1473157314 0.4923169706 0.8837761933 303.1490037449
9.6800275892 24.4856349379 303.2114905313 0.5123846022 0.8389010727 303.2130839578
9.2174347788 24.4856349379 303.1940758624 0.5134053323 0.9297050831 303.1959359468
8.7548419684 24.4856349379 303.0986607095 0.5146936126 1.1280847786 303.1011969766
8.2922491580 24.4856349379 302.9940210928 0.5282699559 1.3192849646 302.9973537837
7.8296563476 24.4856349379 302.9344936128 0.5412843359 1.4154564348 302.9382840219
7.3670635372 24.4856349379 302.9498445574 0.5335569490 1.4063418680 302.9535786186
6.9044707268 24.4856349379 303.0077173540 0.4952952088 1.3396638498 303.0110836136
6.4418779165 24.4856349379 303.0688440033 0.4643705611 1.2765043002 303.0718880213
5.9792851061 24.4856349379 303.0962647239 0.4284390290 1.2343676868 303.0990810167
5.5166922957 24.4856349379 303.0763892132 0.3772248696 1.2033816062 303.0790130055
5.0540994853 24.4856349379 303.0326730586 0.3247651275 1.2485173013 303.0354190666
4.5915066749 24.4856349379 302.9969630740 0.3158668294 1.3709786878 303.0002293506
4.1289138645 24.4856349379 302.9464055899 0.3655179402 1.4666138492 302.9501761336
3.6663210541 24.4856349379 302.8704078975 0.4554120406 1.4581941762 302.8742605610
3.2037282437 24.4856349379 302.8218979811 0.5134284063 1.3996834196 302.8255679748
2.7411354333 24.4856349379 302.8408168357 0.5281696438 1.3329618103 302.8442109271
2.2785426229 24.4856349379 302.8742155608 0.4936129723 1.3249161964 302.8775156862
1.8159498125 24.4856349379 302.8661211819 0.3888969451 1.4186177085 302.8696932293
1.3533570021 24.4856349379 302.7920306263 0.2727595805 1.5252832770 302.7959951810
0.8907641917 24.4856349379 302.6959997019 0.1899718893 1.5660357776 302.7001103286
0.4281713814 24.4856349379 302.6445897243 0.1517890370 1.5506054796 302.6486000408
-0.0344214290 24.4856349379 302.6522607119 0.1529412489 1.5259219462 302.6561460516
-0.4970142394 24.4856349379 302.6306247037 0.1698751024 1.5275582333 302.6345276076
-0.9596070498 24.4856349379 302.5617329327 0.1846955987 1.5837148766 302.5659341375
-1.4221998602 24.4856349379 302.4459320032 0.1648254200 1.7135448684 302.4508310267
-1.8847926706 24.4856349379 302.4127598113 0.1571853716 1.7985208781 302.4181487300
-2.3473854810 24.4856349379 302.4526784481 0.1699002898 1.7813433771 302.4579718750
-2.8099782914 24.4856349379 302.4746003020 0.1660661533 1.7168756611 302.4795184270
-3.2725711018 24.4856349379 302.4913535755 0.1447983965 1.6581497076 302.4959328899
-3.7351639122 24.4856349379 302.5050765271 0.0898313097 1.5966729443 302.5093035906
-4.1977567226 24.4856349379 302.5044868089 0.0078420550 1.5419731786 302.5084168784
-4.6603495330 24.4856349379 302.4380284917 -0.0759455227 1.5454173301 302.4419864377
-5.1229423434 24.4856349379 302.3104095368 -0.1023007310 1.6196675299 302.3147656048
-5.5855351537 24.4856349379 302.2063066262 -0.1254366919 1.7707009033 302.2115200993
-6.0481279641 24.4856349379 302.1313416123 -0.1768908000 1.9022659299 302.1373818158
-6.5107207745 24.4856349379 302.1118853735 -0.2665744291 1.9357248536 302.1182043118
-6.9733135849 24.4856349379 302.1186687073 -0.3260794876 1.9404830579 302.1250763902
-7.4359063953 24.4856349379 302.1275593208 -0.3559174778 1.9244541431 302.1338979693
-7.8984992057 24.4856349379 302.0956972413 -0.3647562870 1.9078912931 302.1019420461
-8.3610920161 24.4856349379 302.0794873596 -0.3816110407 1.8113365660 302.0851589380
-8.8236848265 24.4856349379 302.0668208438 -0.4300474922 1.6967342149 302.0718922749
-9.2862776369 24.4856349379 302.0512719395 -0.4974660397 1.6765242510 302.0563342926
-9.7488704473 24.4856349379 301.9877580610 -0.5736372989 1.8074984364 301.9937120687
-10.2114632577 24.4856349379 301.8977269807 -0.6589555277 1.9922895468 301.9050198260
-10.6740560681 24.4856349379 301.8524138821 -0.6913610302 2.1280797846 301.8607070655
-11.1366488785 24.4856349379 301.8481933462 -0.6941243036 2.1407498229 301.8565825765
-11.5992416888 24.4856349379 301.8785682148 -0.7178001234 2.0067651538 301.8860915823
-12.0618344992 24.4856349379 301.9107029682 -0.7580988177 1.8200205002 301.9171405456
-12.5244273096 24.4856349379 301.9507492369 -0.8272382544 1.7582677271 301.9570015635
-12.9870201200 24.4856349379 301.9454048790 -0.8576944216 1.8252558003 301.9521397937
-13.4496129304 24.4856349379 301.9096833453 -0.8312707559 1.9751765624 301.9172887252
-13.9122057408 24.4856349379 301.8747427297 -0.7603023407 2.0844042990 301.8828963340
-14.3747985512 24.4856349379 301.8518677720 -0.7208328436 2.0903861467 301.8599665270
-14.8373913616 24.4856349379 301.7945879386 -0.7764026781 2.0654707142 301.8026545268
-15.2999841720 24.4856349379 301.7488715128 -0.9028508024 2.0460046775 301.7571585464
-15.7625769824 24.4856349379 301.7724447561 -0.9809529161 2.0187079329 301.7807910792
-16.2251697928 24.4856349379 301.8092763889 -0.9940028365 1.9832073989 301.8174290322