# Kim, K. U., Elliott, G. S., and Dutton, J. C., “A Three-Dimensional Experimental Study of Compressibility Effects on Turbulent Free Shear Layers,” AIAA Aviation Conference, Atlanta, GA, 2018.
# This work was funded by the NASA Aeronautics Mission Directorate's Transformative Aeronautics Concepts Program, Transformational Tools and Technologies Project; Grant Number NNX15AU94A.
VARIABLES = "z (mm)", "y (mm)", "U (m/s)", "V (m/s)", "W (m/s)", "|V| (m/s)"
ZONE T="Frame 0", I=114, J=88, F=POINT
14.4079665244 13.8026584685 440.9758544161 -9.7741422971 -1.3995781569 441.0863825314
14.0934673250 13.8026584685 441.1359852492 -9.6228442072 -1.5793788503 441.2437546866
13.7789681256 13.8026584685 441.3892632850 -9.6700482082 -1.8796273595 441.4991784530
13.4644689262 13.8026584685 441.6687717452 -9.7395775101 -2.2140776413 441.7816943296
13.1499697268 13.8026584685 442.0899777734 -10.0743471736 -2.7077973101 442.2130403832
12.8354705274 13.8026584685 442.5185321084 -9.9887846079 -3.2393631149 442.6431074248
12.5209713280 13.8026584685 442.8488706907 -9.9748602682 -3.6726776367 442.9764199936
12.2064721286 13.8026584685 443.0534154299 -10.0909992580 -3.8012399911 443.1846191099
11.8919729292 13.8026584685 443.1882979537 -10.2889599084 -3.6705778954 443.3229108463
11.5774737298 13.8026584685 443.3066915533 -10.4450112314 -3.4740335382 443.4433334086
11.2629745305 13.8026584685 443.4425464817 -10.6803035254 -3.3280815913 443.5836302668
10.9484753311 13.8026584685 443.5489254126 -10.8480224723 -3.3401742631 443.6941351769
10.6339761317 13.8026584685 443.6234142291 -10.8495884175 -3.3544791606 443.7687458030
10.3194769323 13.8026584685 443.7103421841 -10.8237297003 -3.3946501223 443.8553193724
10.0049777329 13.8026584685 443.7123664992 -10.6890436515 -3.3646488761 443.8538506091
9.6904785335 13.8026584685 443.6948557365 -10.4678175830 -3.2291459263 443.8300661237
9.3759793341 13.8026584685 443.6838925827 -10.2342536349 -3.0408515777 443.8123288769
9.0614801347 13.8026584685 443.7097037726 -9.9437508778 -2.8945517508 443.8305508111
8.7469809353 13.8026584685 443.7435024099 -9.6771705611 -2.7703562496 443.8576556001
8.4324817359 13.8026584685 443.7780199062 -9.4950220883 -2.6308290906 443.8873817287
8.1179825366 13.8026584685 443.8484274980 -9.3425232294 -2.4462009313 443.9534809321
7.8034833372 13.8026584685 443.9233841125 -9.2449120884 -2.1878172704 444.0250284678
7.4889841378 13.8026584685 444.0204072479 -9.1377195074 -1.9938287251 444.1188977328
7.1744849384 13.8026584685 444.1104722081 -9.1253723635 -1.8292412238 444.2079806455
6.8599857390 13.8026584685 444.2105874838 -9.2637604597 -1.6765010876 444.3103351785
6.5454865396 13.8026584685 444.3059670028 -9.4283076298 -1.4709337543 444.4084258260
6.2309873402 13.8026584685 444.3728208729 -9.6546673688 -1.3026910479 444.4795985605
5.9164881408 13.8026584685 444.4683415873 -9.7260969325 -1.0955068909 444.5760944655
5.6019889414 13.8026584685 444.5719794244 -9.7801208502 -0.9019766530 444.6804574242
5.2874897420 13.8026584685 444.6770124908 -9.8402591762 -0.7176020239 444.7864556066
4.9729905427 13.8026584685 444.7808091176 -9.8401276854 -0.5576002706 444.8899944821
4.6584913433 13.8026584685 444.8444610805 -9.8952654225 -0.4168450918 444.9546994826
4.3439921439 13.8026584685 444.8868012941 -9.8415223577 -0.2412811600 444.9957075575
4.0294929445 13.8026584685 444.9184876613 -9.8724123651 -0.0484439412 445.0280075855
3.7149937451 13.8026584685 444.9502437547 -9.8445280733 0.1275127954 445.0591538322
3.4004945457 13.8026584685 444.9930427828 -9.7578928347 0.2695390463 445.1000980105
3.0859953463 13.8026584685 445.0189887285 -9.7150808931 0.3946385665 445.1251945973
2.7714961469 13.8026584685 445.0621402650 -9.7024171562 0.4624899200 445.1681249739
2.4569969475 13.8026584685 445.0818489167 -9.6827989837 0.4714229877 445.1874111774
2.1424977481 13.8026584685 445.0472506838 -9.5841143858 0.4832072628 445.1506981675
1.8279985487 13.8026584685 444.9316604483 -9.5146625581 0.5671589788 445.0337435995
1.5134993494 13.8026584685 444.7576803349 -9.4886437585 0.6417265223 444.8593489972
1.1990001500 13.8026584685 444.6047040505 -9.4748348857 0.6355841946 444.7061044412
0.8845009506 13.8026584685 444.4049651837 -9.5192285832 0.5938402905 444.5073018962
0.5700017512 13.8026584685 444.1868514923 -9.5758313363 0.5201605493 444.2903624336
0.2555025518 13.8026584685 443.9163149308 -9.6182341968 0.4743481170 444.0207541287
-0.0589966476 13.8026584685 443.6082670449 -9.6397531474 0.4012974639 443.7131736505
-0.3734958470 13.8026584685 443.3184315335 -9.6475049670 0.2678758628 443.4234746232
-0.6879950464 13.8026584685 443.0984127529 -9.7171313420 0.0991396607 443.2049591942
-1.0024942458 13.8026584685 442.9200363365 -9.8452153243 -0.1095138254 443.0294559579
-1.3169934452 13.8026584685 442.7547588121 -9.9555477435 -0.3594713952 442.8668181308
-1.6314926445 13.8026584685 442.5720780181 -10.0613940227 -0.6266134082 442.6868741393
-1.9459918439 13.8026584685 442.3727437641 -10.1246310909 -0.8962209101 442.4894979454
-2.2604910433 13.8026584685 442.1673460567 -10.0851780341 -1.1072218063 442.2837309634
-2.5749902427 13.8026584685 442.0117031547 -10.0212596383 -1.2840829811 442.1271539270
-2.8894894421 13.8026584685 441.8939633131 -9.9533721628 -1.4705795231 442.0084920384
-3.2039886415 13.8026584685 441.8146787540 -9.9120225143 -1.6510137245 441.9289359152
-3.5184878409 13.8026584685 441.7598202570 -9.9253108633 -1.7634492897 441.8748242915
-3.8329870403 13.8026584685 441.6942630777 -9.9736896464 -1.8581229274 441.8107616862
-4.1474862397 13.8026584685 441.6146169094 -10.0152955224 -1.9845924937 441.7326279774
-4.4619854391 13.8026584685 441.5037092553 -10.0348487813 -2.1567191414 441.6230008884
-4.7764846385 13.8026584685 441.3195382958 -10.0248968156 -2.2770572563 441.4392579138
-5.0909838378 13.8026584685 441.1339706693 -10.0141848843 -2.3859238983 441.2540726273
-5.4054830372 13.8026584685 440.9867867848 -10.0071819052 -2.4981913956 441.1073914238
-5.7199822366 13.8026584685 440.9089685012 -10.0014067649 -2.5674151057 441.0298609645
-6.0344814360 13.8026584685 440.8711805117 -10.0609018860 -2.5712233974 440.9934588430
-6.3489806354 13.8026584685 440.8507397585 -10.1519995668 -2.5081866226 440.9747485298
-6.6634798348 13.8026584685 440.8288665996 -10.2011207882 -2.3627946796 440.9532121342
-6.9779790342 13.8026584685 440.9017781357 -10.2636883284 -2.1585606017 441.0265078714
-7.2924782336 13.8026584685 440.9500785026 -10.3235302925 -1.9029899361 441.0750144588
-7.6069774330 13.8026584685 440.9928888805 -10.4227321810 -1.6656201298 441.1191853453
-7.9214766324 13.8026584685 440.9438764760 -10.5455568930 -1.4770187324 441.0724345912
-8.2359758317 13.8026584685 440.8856599805 -10.6328602255 -1.3460525518 441.0159121284
-8.5504750311 13.8026584685 440.8234415420 -10.6724324104 -1.2926406923 440.9545082505
-8.8649742305 13.8026584685 440.9042938277 -10.7367473555 -1.2662640957 441.0368210073
-9.1794734299 13.8026584685 441.0546384517 -10.8348866722 -1.2283845689 441.1894126082
-9.4939726293 13.8026584685 441.2329205386 -10.9676093944 -1.0112650423 441.3703674691
-9.8084718287 13.8026584685 441.3270848032 -11.1115093237 -0.7816435728 441.4676345861
-10.1229710281 13.8026584685 441.4750766636 -11.2199202641 -0.4495567424 441.6178574595
-10.4374702275 13.8026584685 441.5818203843 -11.3132607020 -0.1831484718 441.7267566098
-10.7519694269 13.8026584685 441.5688340538 -11.4248897251 -0.1377229731 441.7166312021
-11.0664686263 13.8026584685 441.4669547811 -11.5279713362 -0.2361398782 441.6175065018
-11.3809678257 13.8026584685 441.4894122786 -11.6256677299 -0.1783926323 441.6424901753
-11.6954670250 13.8026584685 441.5237835004 -11.7046747749 -0.0177186525 441.6789004719
-12.0099662244 13.8026584685 441.5803928843 -11.7952715069 0.1895491901 441.7379401168
-12.3244654238 13.8026584685 441.5533940469 -11.9248814100 0.1757999415 441.7144252757
-12.6389646232 13.8026584685 441.5424636402 -12.0520422819 0.0311134991 441.7069162789
-12.9534638226 13.8026584685 441.4318783794 -12.1521507088 -0.1667291085 441.5991460759
-13.2679630220 13.8026584685 441.3466226465 -12.2578775960 -0.3614889470 441.5169618020
-13.5824622214 13.8026584685 441.1849467208 -12.3714922052 -0.4520999537 441.3586018498
-13.8969614208 13.8026584685 441.0815018476 -12.4794821395 -0.6348105302 441.2584636367
-14.2114606202 13.8026584685 440.9788341885 -12.6268523280 -0.9638017753 441.1606266608
-14.5259598196 13.8026584685 441.0949520317 -12.8250016321 -0.9488042642 441.2823785335
-14.8404590189 13.8026584685 441.1012978395 -12.9777162199 -0.8518154175 441.2929884594
-15.1549582183 13.8026584685 441.0375018106 -13.1137045389 -0.6727118269 441.2329314447
-15.4694574177 13.8026584685 441.0859713174 -13.2787205426 -0.2025532307 441.2858478810
-15.7839566171 13.8026584685 441.0292643511 -13.3923271590 0.0498913061 441.2325565164
-16.0984558165 13.8026584685 440.9546257398 -13.5357215713 0.2245326136 441.1623829552
-16.4129550159 13.8026584685 440.9579558994 -13.6768680051 0.4722578813 441.1702603496
-16.7274542153 13.8026584685 440.8963284940 -13.8500065097 0.7271931405 441.1144114282
-17.0419534147 13.8026584685 440.7576519638 -14.0089860519 0.8248499278 440.9809971328
-17.3564526141 13.8026584685 440.9548904879 -14.2039940539 0.9232045806 441.1845659120
-17.6709518135 13.8026584685 441.5133138426 -14.3110051784 1.1900727414 441.7467910949
-17.9854510128 13.8026584685 441.6790746153 -14.4682580899 1.0801783263 441.9173024791
-18.2999502122 13.8026584685 441.9549905019 -14.7071214180 1.1237171131 442.2010581060
-18.6144494116 13.8026584685 442.5542499093 -14.8324740408 1.3032396488 442.8046576455
-18.9289486110 13.8026584685 442.6715567899 -14.9786364840 0.9225232033 442.9258603771
-19.2434478104 13.8026584685 442.4932777742 -15.1292490079 0.7230572028 442.7524340561
-19.5579470098 13.8026584685 442.6692971463 -15.3255918660 0.9308259333 442.9354883490
-19.8724462092 13.8026584685 442.8251045374 -15.4257119456 0.9744288382 443.0947701216
-20.1869454086 13.8026584685 443.2328709380 -15.5836227419 1.7042992855 443.5100132058
-20.5014446080 13.8026584685 443.0309440602 -15.6979510826 1.3664321934 443.3110761080
-20.8159438074 13.8026584685 443.1322636875 -15.9383803533 1.4317770605 443.4211148272
-21.1304430068 13.8026584685 443.2675829224 -15.9616866613 1.6040611134 443.5577736023
14.4079665244 13.4881592691 440.9767204877 -9.4308388357 -1.6476155361 441.0806313705
14.0934673250 13.4881592691 441.1467050132 -9.3875591130 -1.8172912855 441.2503191588
13.7789681256 13.4881592691 441.4488802987 -9.6111273111 -2.1425441888 441.5586916604
13.4644689262 13.4881592691 441.8167292614 -9.7299942374 -2.5320107614 441.9311101536
13.1499697268 13.4881592691 442.2489886993 -9.9338651315 -3.0008850866 442.3707212207
12.8354705274 13.4881592691 442.6713190806 -10.1325851529 -3.5431915050 442.8014455990
12.5209713280 13.4881592691 442.9993846788 -10.0941826735 -3.9263135204 443.1317674096
12.2064721286 13.4881592691 443.1903534037 -10.0552349167 -3.9739911152 443.3222188259
11.8919729292 13.4881592691 443.2601234471 -10.2672356620 -3.7674471884 443.3950234552
11.5774737298 13.4881592691 443.3251138343 -10.4027078616 -3.5072524069 443.4610171216
11.2629745305 13.4881592691 443.4536253011 -10.5582018129 -3.3517386002 443.5919606686
10.9484753311 13.4881592691 443.5427630377 -10.7188336058 -3.3320346642 443.6847737888
10.6339761317 13.4881592691 443.6297220885 -10.7651009752 -3.3558035887 443.7730040652
10.3194769323 13.4881592691 443.7044546206 -10.7163096418 -3.4174793156 443.8470023638
10.0049777329 13.4881592691 443.7261815993 -10.5662547629 -3.3829373994 443.8648603368
9.6904785335 13.4881592691 443.7001800187 -10.3633165817 -3.2707648301 443.8332411862
9.3759793341 13.4881592691 443.6924284620 -10.1584141438 -3.0749317563 443.8193547579
9.0614801347 13.4881592691 443.6984011716 -9.9004523689 -2.8854238063 443.8182238596
8.7469809353 13.4881592691 443.7228972416 -9.5596214812 -2.7458888297 443.8343562691
8.4324817359 13.4881592691 443.7935087480 -9.3300198120 -2.6102278328 443.8992464128
8.1179825366 13.4881592691 443.8917524052 -9.1326010308 -2.4092193361 443.9922258247
7.8034833372 13.4881592691 443.9779587926 -9.0394591954 -2.1777894012 444.0753117241
7.4889841378 13.4881592691 444.0624633036 -9.0005646031 -1.9787901896 444.1580766901
7.1744849384 13.4881592691 444.1562140629 -9.0118896669 -1.8379062092 444.2514316750
6.8599857390 13.4881592691 444.2631544751 -9.1725599239 -1.7145540625 444.3611436381
6.5454865396 13.4881592691 444.3603410370 -9.4397083865 -1.5389792776 444.4632597169
6.2309873402 13.4881592691 444.4491206531 -9.6378172875 -1.3186726603 444.5555615094
5.9164881408 13.4881592691 444.5197119563 -9.7903550474 -1.1016648479 444.6288778691
5.6019889414 13.4881592691 444.5942838861 -9.8711779218 -0.9134719185 444.7047917987
5.2874897420 13.4881592691 444.6828895497 -9.9384527895 -0.7654667442 444.7945942134
4.9729905427 13.4881592691 444.7791196471 -9.9761710477 -0.6171426634 444.8914138617
4.6584913433 13.4881592691 444.8578872052 -9.9472390956 -0.4360777972 444.9692995456
4.3439921439 13.4881592691 444.9106017389 -9.9297302714 -0.2567272475 445.0214702593
4.0294929445 13.4881592691 444.9519264361 -9.8658294794 -0.0279816592 445.0612904011
3.7149937451 13.4881592691 444.9549926716 -9.8307218413 0.1820801440 445.0636153950
3.4004945457 13.4881592691 444.9515836727 -9.7759433618 0.3726582102 445.0591193939
3.0859953463 13.4881592691 444.9745308587 -9.7285494217 0.5106148933 445.0811594690
2.7714961469 13.4881592691 444.9856287053 -9.6909521063 0.5539892965 445.0914863386
2.4569969475 13.4881592691 445.0030882764 -9.6424826341 0.5384273955 445.1078700169
2.1424977481 13.4881592691 445.0101499678 -9.5533488357 0.5467713368 445.1130182406
1.8279985487 13.4881592691 444.9120828379 -9.5506562749 0.5717331189 445.0149473548
1.5134993494 13.4881592691 444.7615357760 -9.5258321902 0.5794085709 444.8639127857
1.1990001500 13.4881592691 444.6062747968 -9.5190879641 0.5458048847 444.7085006240
0.8845009506 13.4881592691 444.4000710107 -9.5038299442 0.4980160633 444.5019616581
0.5700017512 13.4881592691 444.1473952603 -9.5622121790 0.4515092475 444.2505469652
0.2555025518 13.4881592691 443.8587989015 -9.6498639841 0.4303295896 443.9638931499
-0.0589966476 13.4881592691 443.5462310370 -9.6969492366 0.4041614558 443.6524013663
-0.3734958470 13.4881592691 443.2467591083 -9.7454228351 0.3135759131 443.3539906847
-0.6879950464 13.4881592691 443.0075232707 -9.8221078472 0.1400401025 443.1164170828
-1.0024942458 13.4881592691 442.8157957121 -9.9571334852 -0.0942276237 442.9277393867
-1.3169934452 13.4881592691 442.6411937786 -10.0768852795 -0.3470155687 442.7560168608
-1.6314926445 13.4881592691 442.4558810570 -10.1607144750 -0.6034379102 442.5729442000
-1.9459918439 13.4881592691 442.2634836523 -10.1720255802 -0.8554391870 442.3812731715
-2.2604910433 13.4881592691 442.0813624351 -10.1494784337 -1.0831300400 442.1991814733
-2.5749902427 13.4881592691 441.9328070749 -10.1022902756 -1.2767883401 442.0501017151
-2.8894894421 13.4881592691 441.8093408099 -10.0282846614 -1.4832611706 441.9256274351
-3.2039886415 13.4881592691 441.7196965623 -10.0143545738 -1.6864953040 441.8364198377
-3.5184878409 13.4881592691 441.6675599064 -10.0666620356 -1.8445710583 441.7861174829
-3.8329870403 13.4881592691 441.6192284570 -10.1340889831 -1.9791702827 441.7399232778
-4.1474862397 13.4881592691 441.5368426313 -10.2001577213 -2.1146977105 441.6597090122
-4.4619854391 13.4881592691 441.4060936988 -10.2320894826 -2.2658206669 441.5304849644
-4.7764846385 13.4881592691 441.1967241100 -10.2171166642 -2.3586430867 441.3213138242
-5.0909838378 13.4881592691 441.0046080299 -10.1837636983 -2.4464629315 441.1289590670
-5.4054830372 13.4881592691 440.8565730492 -10.1721638861 -2.5463261929 440.9812634295
-5.7199822366 13.4881592691 440.7882729602 -10.1637216551 -2.6413947327 440.9133472501
-6.0344814360 13.4881592691 440.7670801707 -10.2005794289 -2.6672653826 440.8931674311
-6.3489806354 13.4881592691 440.7569930791 -10.2337254108 -2.5534594297 440.8831775414
-6.6634798348 13.4881592691 440.7595765935 -10.2807167042 -2.4297974301 440.8861547048
-6.9779790342 13.4881592691 440.7999101949 -10.3541814568 -2.2944548863 440.9274707077
-7.2924782336 13.4881592691 440.8312485330 -10.4224305373 -2.0479835445 440.9591942324
-7.6069774330 13.4881592691 440.8693503465 -10.4827252587 -1.8055804831 440.9976550104
-7.9214766324 13.4881592691 440.8570690238 -10.5641484171 -1.6392874527 440.9866707775
-8.2359758317 13.4881592691 440.7676334164 -10.6313876997 -1.5323520953 440.8984930513
-8.5504750311 13.4881592691 440.7617280684 -10.6759986692 -1.3963294971 440.8932156582
-8.8649742305 13.4881592691 440.8215975179 -10.7365075176 -1.3449813081 440.9543767859
-9.1794734299 13.4881592691 440.9384714755 -10.8242158710 -1.2904269602 441.0731962816
-9.4939726293 13.4881592691 441.0759800819 -10.9508127540 -1.2165625748 441.2135770006
-9.8084718287 13.4881592691 441.2122566799 -11.0851312389 -1.0723478061 441.3527903039
-10.1229710281 13.4881592691 441.2795183167 -11.1745892203 -0.9073492017 441.4219160991
-10.4374702275 13.4881592691 441.2851426447 -11.2569283702 -0.7730204970 441.4293750035
-10.7519694269 13.4881592691 441.3426842269 -11.3709484464 -0.6493000359 441.4896204665
-11.0664686263 13.4881592691 441.3187405445 -11.4779657144 -0.7521914768 441.4686175084
-11.3809678257 13.4881592691 441.2902619129 -11.5516024940 -0.7622591288 441.4420865961
-11.6954670250 13.4881592691 441.4798789931 -11.5728092221 -0.4357186530 441.6317508058
-12.0099662244 13.4881592691 441.4620020697 -11.6084376530 -0.2972356946 441.6147002141
-12.3244654238 13.4881592691 441.4557397847 -11.6838854268 -0.1631202007 441.6103599053
-12.6389646232 13.4881592691 441.4728463019 -11.7646303968 -0.1390875588 441.6295958104
-12.9534638226 13.4881592691 441.5293754441 -11.8920821604 -0.1186355732 441.6895120699
-13.2679630220 13.4881592691 441.5010143252 -11.9848590415 -0.1683620409 441.6636852201
-13.5824622214 13.4881592691 441.2630700117 -12.0692920543 -0.4035493685 441.4282813991
-13.8969614208 13.4881592691 441.1041003663 -12.1733091686 -0.6835772529 441.2725734668
-14.2114606202 13.4881592691 441.0540777572 -12.3014123869 -0.9587529633 441.2266350304
-14.5259598196 13.4881592691 440.8645645111 -12.4113088999 -1.3759459244 441.0413790761
-14.8404590189 13.4881592691 440.9222944619 -12.5080043566 -1.4438737682 441.1020343390
-15.1549582183 13.4881592691 441.0020172327 -12.6382585158 -1.1045393382 441.1844566491
-15.4694574177 13.4881592691 440.8751717489 -12.7711139337 -0.7601650196 441.0607625561
-15.7839566171 13.4881592691 440.7675623450 -12.8990859113 -0.5394955696 440.9565981912
-16.0984558165 13.4881592691 440.8058171929 -13.0711230957 -0.0661647370 440.9995772196
-16.4129550159 13.4881592691 440.7735279433 -13.2614379037 0.3196704826 440.9730953926
-16.7274542153 13.4881592691 440.6544947975 -13.4418633888 0.4156627997 440.8596604954
-17.0419534147 13.4881592691 440.7100416484 -13.6139079166 0.6013859976 440.9206742302
-17.3564526141 13.4881592691 441.1279356909 -13.8298051906 0.9410545609 441.3456748878
-17.6709518135 13.4881592691 441.4323033427 -13.9783584996 0.7525015965 441.6542077230
-17.9854510128 13.4881592691 441.9090236319 -14.1063535936 0.7646457007 442.1347747712
-18.2999502122 13.4881592691 442.3012342404 -14.2146097144 1.0557835741 442.5308482116
-18.6144494116 13.4881592691 442.7205255876 -14.4657358547 1.4482428937 442.9591614334
-18.9289486110 13.4881592691 442.6914247934 -14.6197790684 1.2424466679 442.9345089280
-19.2434478104 13.4881592691 443.1920484174 -14.7893094043 1.2974086965 443.4406372024
-19.5579470098 13.4881592691 443.1837697771 -14.8995278219 1.1608107302 443.4356742581
-19.8724462092 13.4881592691 443.3476033885 -15.0958407868 1.2896673910 443.6064078452
-20.1869454086 13.4881592691 443.5754605291 -15.2038071853 1.6345995840 443.8389537347
-20.5014446080 13.4881592691 443.3041129013 -15.3597554744 1.2086717989 443.5717749034
-20.8159438074 13.4881592691 443.6274039404 -15.4672705858 1.6538908510 443.9000398076
-21.1304430068 13.4881592691 443.8747682555 -15.5792094427 1.9945306435 444.1525636685
14.4079665244 13.1736600697 441.0094109855 -8.9756855766 -1.9767763351 441.1051701737
14.0934673250 13.1736600697 441.2029427938 -9.1239808038 -2.1825521658 441.3026708389
13.7789681256 13.1736600697 441.5111409421 -9.4819989190 -2.4548556247 441.6197710651
13.4644689262 13.1736600697 441.9249504717 -9.5912383617 -2.7748076853 442.0377283224
13.1499697268 13.1736600697 442.3525228029 -9.8500161017 -3.2017312752 442.4737600473
12.8354705274 13.1736600697 442.7158994011 -10.0908535663 -3.6775524915 442.8461553413
12.5209713280 13.1736600697 443.0042316397 -10.0448312124 -4.0521699676 443.1366244921
12.2064721286 13.1736600697 443.1902244976 -9.8546045248 -4.0756656502 443.3185078148
11.8919729292 13.1736600697 443.2597250611 -9.8853766403 -3.8382258710 443.3865542734
11.5774737298 13.1736600697 443.3597029024 -10.0631994222 -3.5810291533 443.4883514931
11.2629745305 13.1736600697 443.4722064157 -10.3085794404 -3.4201228232 443.6051869776
10.9484753311 13.1736600697 443.5731034204 -10.3883080248 -3.3840678441 443.7076367799
10.6339761317 13.1736600697 443.6414676215 -10.5632161953 -3.4385224428 443.7805277007
10.3194769323 13.1736600697 443.7131047417 -10.5320414604 -3.4772728828 443.8517034365
10.0049777329 13.1736600697 443.7403798680 -10.3838120584 -3.4430769525 443.8752111316
9.6904785335 13.1736600697 443.7324073601 -10.2828187404 -3.3050631792 443.8638407727
9.3759793341 13.1736600697 443.7045118812 -10.0319687698 -3.0837551467 443.8286198602
9.0614801347 13.1736600697 443.6848570817 -9.7978134561 -2.8884231424 443.8024251178
8.7469809353 13.1736600697 443.6994353833 -9.4743571482 -2.7326559766 443.8089902329
8.4324817359 13.1736600697 443.8093342476 -9.2015095530 -2.5751596157 443.9121809439
8.1179825366 13.1736600697 443.9556735743 -8.9896257405 -2.3603228866 444.0529524661
7.8034833372 13.1736600697 444.0425912218 -8.8835257911 -2.1356501487 444.1365790509
7.4889841378 13.1736600697 444.1025733156 -8.8669273072 -1.9654168849 444.1954309636
7.1744849384 13.1736600697 444.1797298753 -8.9125445492 -1.8439765293 444.2729635391
6.8599857390 13.1736600697 444.3036033703 -9.1208056868 -1.7586789020 444.4006908362
6.5454865396 13.1736600697 444.4270053374 -9.3861342924 -1.5850247441 444.5289359463
6.2309873402 13.1736600697 444.5078592174 -9.6716360201 -1.3642871720 444.6151580061
5.9164881408 13.1736600697 444.5617040099 -9.8452103305 -1.1459044805 444.6721825521
5.6019889414 13.1736600697 444.6242153888 -9.9269793476 -0.9706760194 444.7360790863
5.2874897420 13.1736600697 444.7205573159 -9.9833305669 -0.8402321995 444.8333923827
4.9729905427 13.1736600697 444.8285885345 -10.0212352162 -0.7074427353 444.9420173552
4.6584913433 13.1736600697 444.9340919513 -9.9958373321 -0.5245277756 445.0466695459
4.3439921439 13.1736600697 444.9730790476 -9.9314161560 -0.2780070797 445.0839824032
4.0294929445 13.1736600697 444.9762764865 -9.8796879892 -0.0026419722 445.0859410019
3.7149937451 13.1736600697 444.9312788951 -9.8678629290 0.2554060941 445.0407654252
3.4004945457 13.1736600697 444.8811949024 -9.8144357089 0.5042905779 444.9897246398
3.0859953463 13.1736600697 444.8632439615 -9.7379629336 0.6552296607 444.9702945995
2.7714961469 13.1736600697 444.8654353607 -9.6381451267 0.7042671440 444.9703871185
2.4569969475 13.1736600697 444.8913805571 -9.5534741649 0.6724460025 444.9944511409
2.1424977481 13.1736600697 444.9286190557 -9.5205858404 0.6258448229 445.0309082426
1.8279985487 13.1736600697 444.8738261078 -9.5121201199 0.5826623888 444.9758882012
1.5134993494 13.1736600697 444.7627370473 -9.5048508099 0.5256686276 444.8645982568
1.1990001500 13.1736600697 444.5965587938 -9.4398264631 0.4958751003 444.6970387883
0.8845009506 13.1736600697 444.3849899297 -9.4058483338 0.4566089416 444.4847553623
0.5700017512 13.1736600697 444.1217517463 -9.4737990202 0.4330726896 444.2229966965
0.2555025518 13.1736600697 443.8235952095 -9.5797713395 0.4290758098 443.9271784760
-0.0589966476 13.1736600697 443.5122953530 -9.6708616577 0.4390013238 443.6179374379
-0.3734958470 13.1736600697 443.2234430339 -9.7467501250 0.3623283616 443.3307465930
-0.6879950464 13.1736600697 442.9645673622 -9.8716355359 0.1998855458 443.0745953909
-1.0024942458 13.1736600697 442.7317197510 -10.0377036940 -0.0371358968 442.8454951202
-1.3169934452 13.1736600697 442.5360270966 -10.1656253829 -0.2855787731 442.6528626058
-1.6314926445 13.1736600697 442.3787193489 -10.2160956128 -0.5333605703 442.4969880302
-1.9459918439 13.1736600697 442.2165643639 -10.1791255774 -0.7965793701 442.3344197935
-2.2604910433 13.1736600697 442.0524076364 -10.1500967856 -1.0497557305 442.1701680903
-2.5749902427 13.1736600697 441.8982863123 -10.1423814719 -1.2703827071 442.0164897602
-2.8894894421 13.1736600697 441.7749653985 -10.1062651146 -1.4832866517 441.8930377215
-3.2039886415 13.1736600697 441.6905010532 -10.1292394869 -1.6934174071 441.8098775217
-3.5184878409 13.1736600697 441.6432616638 -10.1885446484 -1.8856297617 441.7647933173
-3.8329870403 13.1736600697 441.5811417625 -10.2557186856 -2.0724246104 441.7050820059
-4.1474862397 13.1736600697 441.4917893995 -10.3429778214 -2.2335958317 441.6185755239
-4.4619854391 13.1736600697 441.3169743329 -10.3975450027 -2.3389015591 441.4456379181
-4.7764846385 13.1736600697 441.0977740140 -10.4052675842 -2.4039923302 441.2270334111
-5.0909838378 13.1736600697 440.9071226891 -10.3903424978 -2.4529174372 441.0363554846
-5.4054830372 13.1736600697 440.7768842902 -10.3556575921 -2.5270985971 440.9057581797
-5.7199822366 13.1736600697 440.7381018729 -10.3472981954 -2.6088193282 440.8672668284
-6.0344814360 13.1736600697 440.7117151305 -10.3735414690 -2.6432359889 440.8417095879
-6.3489806354 13.1736600697 440.6982842020 -10.4067068404 -2.5758055574 440.8286651525
-6.6634798348 13.1736600697 440.6914335381 -10.4635895784 -2.4439181563 440.8224121307
-6.9779790342 13.1736600697 440.7256032166 -10.5477021840 -2.3123368941 440.8578662721
-7.2924782336 13.1736600697 440.7106322516 -10.6005300627 -2.1173944868 440.8431875130
-7.6069774330 13.1736600697 440.6982723455 -10.6148506812 -1.9088445879 440.8302235452
-7.9214766324 13.1736600697 440.6937710860 -10.6424349781 -1.7584726344 440.8257632243
-8.2359758317 13.1736600697 440.6509880954 -10.7100141283 -1.6008038651 440.7840290721
-8.5504750311 13.1736600697 440.6415086957 -10.7589276884 -1.5109249274 440.7754264983
-8.8649742305 13.1736600697 440.6951603730 -10.7786990776 -1.5024797118 440.8295159983
-9.1794734299 13.1736600697 440.8348588928 -10.8492092283 -1.4437752120 440.9707049712
-9.4939726293 13.1736600697 440.9324075179 -10.9530747698 -1.4341871207 441.0707593337
-9.8084718287 13.1736600697 441.0560387717 -11.0791979087 -1.3916440208 441.1973647206
-10.1229710281 13.1736600697 441.1368055473 -11.1756049363 -1.3690104784 441.2804658534
-10.4374702275 13.1736600697 441.1545906646 -11.2731204260 -1.2176923932 441.3002819888
-10.7519694269 13.1736600697 441.1762987185 -11.3726417352 -1.1567110687 441.3243722156
-11.0664686263 13.1736600697 441.2215788192 -11.4668497327 -1.2690737156 441.3723833755
-11.3809678257 13.1736600697 441.2569809190 -11.4919516233 -1.2611923779 441.4084035992
-11.6954670250 13.1736600697 441.3334710853 -11.4847755874 -1.0187546778 441.4840547875
-12.0099662244 13.1736600697 441.3416687884 -11.4630508470 -0.6839206848 441.4910394234
-12.3244654238 13.1736600697 441.2494374853 -11.5126505416 -0.4917500686 441.3998742882
-12.6389646232 13.1736600697 441.2867138766 -11.5855325655 -0.2872744085 441.4388643238
-12.9534638226 13.1736600697 441.3748592612 -11.6983645848 -0.1966839566 441.5299047702
-13.2679630220 13.1736600697 441.4032776641 -11.8126907462 -0.2097200490 441.5613628679
-13.5824622214 13.1736600697 441.1560169663 -11.8864935048 -0.5675804038 441.3164875472
-13.8969614208 13.1736600697 440.9230908472 -11.9441033813 -0.9586333222 441.0858789688
-14.2114606202 13.1736600697 440.8919589329 -12.0063239826 -1.2066896684 441.0570568160
-14.5259598196 13.1736600697 440.8032148515 -12.0927966960 -1.6060930700 440.9719826591
-14.8404590189 13.1736600697 440.7046530556 -12.1693765651 -1.7213289053 440.8760006216
-15.1549582183 13.1736600697 440.6699998089 -12.2129377696 -1.6646086753 440.8423476739
-15.4694574177 13.1736600697 440.5703278248 -12.3103644264 -1.3885305274 440.7444688808
-15.7839566171 13.1736600697 440.5894620739 -12.4347389127 -0.8524968016 440.7657241361
-16.0984558165 13.1736600697 440.5061962927 -12.5928446679 -0.4984932248 440.6864386438
-16.4129550159 13.1736600697 440.4942216919 -12.7941843327 -0.0052816343 440.6799865261
-16.7274542153 13.1736600697 440.5471632623 -12.9697953652 0.3274304496 440.7381602051
-17.0419534147 13.1736600697 440.6206266563 -13.1639907397 0.4340588280 440.8174403245
-17.3564526141 13.1736600697 440.9433824723 -13.3525230111 0.5331098557 441.1458269359
-17.6709518135 13.1736600697 441.1675339554 -13.4856707611 0.3922828042 441.3737760877
-17.9854510128 13.1736600697 441.6706594959 -13.5966129445 0.3394114056 441.8800227926
-18.2999502122 13.1736600697 442.1128903569 -13.7501873032 0.7526941702 442.3273019147
-18.6144494116 13.1736600697 442.4080288193 -13.8964155553 1.3410835103 442.6282558017
-18.9289486110 13.1736600697 442.7870797680 -14.1301683110 1.6562347525 443.0155784840
-19.2434478104 13.1736600697 442.7769321487 -14.2415065073 1.1578492486 443.0074184091
-19.5579470098 13.1736600697 443.0029109016 -14.3888186184 0.9057971432 443.2374506255