# Tymkiw, N. J., Elliott, G. S., and Dutton, J. C., “A Three-Dimensional Experimental Study of Thermal Effects on Supersonic Turbulent Free Shear Layers,”
# This work was funded by the NASA Aeronautics Mission Directorate's Transformative Aeronautics Concepts Program, Transformational Tools and Technologies Project; Grant Number NNX15AU94A.
VARIABLES = "y (mm)", "U (m/s)", "Rexx (m/s)^2", "Reyy (m/s)^2", "Rexy (m/s)^2"
ZONE T="Frame 0", I=127, J=1, F=POINT
21.5817292929 504.2993457480 99.9858716834 38.4271012936 15.6624346632
21.4236212969 503.3216024453 74.5646612067 32.4542470973 -0.4663277877
21.2655133009 503.3633393293 65.2207710856 21.4149154404 -0.8911351553
21.1074053049 503.2754702211 59.5812135915 18.5012088876 2.3042845630
20.9492973089 503.2369374873 57.5955242134 18.9607069737 3.7309828166
20.7911893129 503.1210000231 61.1086904083 20.6934373027 6.6827506435
20.6330813169 502.7251781510 61.1470621422 17.1572528897 3.9840263657
20.4749733210 502.3480308205 59.7466290707 15.8707485098 2.9581974796
20.3168653250 501.9812272408 54.9273058394 16.2656673018 2.2733716939
20.1587573290 501.8346354828 54.1323453621 18.6110611259 3.2293964187
20.0006493330 501.3455238343 48.8504102123 19.9732096841 3.9563588540
19.8425413370 500.9745887856 61.1453457969 18.3454303134 -1.3640242019
19.6844333410 500.6302444143 67.3840752399 19.6814568122 -2.7706320927
19.5263253450 500.4071526270 60.9443105594 20.9864707975 -2.2505580249
19.3682173491 499.9047946445 61.4672505244 19.6467446777 -1.4962520396
19.2101093531 499.7250154292 62.5296655827 19.3051046449 -3.6880098788
19.0520013571 499.5096512984 63.5380895180 22.6384758674 -2.8931653907
18.8938933611 499.4319148441 59.8821480429 20.3549861502 -2.8621572770
18.7357853651 499.1261258241 57.5566298956 21.5702564042 0.4436861475
18.5776773691 498.8899912606 60.3300261831 22.2310323693 -0.3860458044
18.4195693731 498.9086054886 59.5634116060 27.5939162487 2.0517575232
18.2614613771 498.9944767149 64.4830156270 33.5453127179 5.9016026558
18.1033533812 499.3196338807 76.4310696248 41.8335237084 9.3034558403
17.9452453852 499.9831870072 83.8019873937 48.8768603566 10.9337395367
17.7871373892 500.9197261944 84.5662772508 75.8815009671 18.9251809278
17.6290293932 502.3133958413 77.6976609503 71.3858408220 17.8611852405
17.4709213972 503.9806999181 71.3806019875 51.8587487594 14.3328084515
17.3128134012 504.6740252546 67.0484096575 41.5101882585 7.0418601352
17.1547054052 505.2439644200 65.3277533080 39.3582597051 1.7031667725
16.9965974092 505.2105734050 61.5659058033 40.5230014752 1.8319331054
16.8384894133 505.2983068079 59.4437625092 45.4488106242 4.9788156501
16.6803814173 505.1488275451 66.6185094651 48.3797900877 12.4906611412
16.5222734213 505.0148940653 67.6098018425 73.8266323392 15.4786336051
16.3641654253 504.8941993804 72.3543250630 56.8630727046 23.7651949310
16.2060574293 504.8723206887 120.2346886130 73.2776560643 56.0515732201
16.0479494333 505.1318719360 56.5210107092 33.6655623210 6.9140158235
15.8898414373 505.2177582407 97.7090394415 52.2484513362 33.9946708876
15.7317334414 505.3822932400 60.9377361794 29.9398814156 8.6863938753
15.5736254454 505.5567950314 71.9348303197 44.2976817570 0.0472728974
15.4155174494 505.7594556489 98.8626275909 39.7058654397 6.9234809399
15.2574094534 505.9269384665 59.8220633406 44.1946500322 12.0448489267
15.0993014574 506.0690368750 60.5529367278 49.2948855514 13.6722518038
14.9411934614 506.1403348721 54.2482052239 27.8849878893 9.2250516658
14.7830854654 506.2260100798 51.3434725486 32.4645164299 9.1419602392
14.6249774694 505.9907575999 44.6145472012 55.5613746665 0.6571436478
14.4668694735 506.1245176787 49.3535180716 28.7302255190 6.4135714713
14.3087614775 505.9136619757 47.6503000948 24.5465639386 6.0613575079
14.1506534815 505.8683741393 42.1183143075 26.5672697976 4.5558866353
13.9925454855 505.7494888569 39.8057033817 15.1261797046 2.7071603751
13.8344374895 505.8414969733 46.2786870219 15.5643105660 4.2250238965
13.6763294935 505.8103677113 50.8866089794 14.8474041123 4.6155654974
13.5182214975 505.9181327077 52.9744473522 22.7699254693 6.9629100829
13.3601135015 505.9581581985 45.9337379497 15.7609615264 2.1953259264
13.2020055056 505.9275340614 43.6172540645 12.9131122270 1.9943695543
13.0438975096 505.9050823923 42.2845722767 12.1761787645 0.7785826591
12.8857895136 505.7768334519 42.6835205068 14.3597909119 -0.6182864965
12.7276815176 505.5634370463 53.2790195485 31.4504731460 -3.6481116185
12.5695735216 505.6584834510 43.3231203662 19.0368276136 1.2703751447
12.4114655256 505.7708398062 38.5093633631 19.1586139870 0.4885098487
12.2533575296 505.8878176769 34.1680048642 15.2722776462 3.0445818308
12.0952495337 505.8650342839 37.2497353118 13.7026432847 4.0283340633
11.9371415377 505.9474224104 36.4070678417 15.0870285227 1.3945283329
11.7790335417 505.9241112751 36.0390186500 16.2175163088 2.5239960628
11.6209255457 506.1125605439 34.8461818806 19.0583275995 3.5983787269
11.4628175497 506.2551113030 33.8970729868 22.2189476045 6.2217545586
11.3047095537 506.3776681647 36.9330712097 23.1817558498 8.2455873570
11.1466015577 506.4553367664 34.8823519580 19.4376166134 4.2401500701
10.9884935617 506.4664570525 34.1517280294 18.5692967328 3.2204045989
10.8303855658 506.5504736413 32.6267180103 18.2750672815 1.5717853118
10.6722775698 506.6723218203 32.8893845452 18.9991768164 2.7186517834
10.5141695738 506.6510085669 33.0707258420 17.4304534320 3.2109866354
10.3560615778 506.6586834491 31.0529080208 17.2741841527 2.6133391971
10.1979535818 506.8052148937 31.6330938871 17.4272428583 2.0708166148
10.0398455858 506.9206924681 29.6513415165 16.3156735108 1.2110074189
9.8817375898 507.0354538208 28.0837428737 17.9469228307 -0.5153468744
9.7236295938 507.2495287523 28.9673697179 18.3369503820 0.2862034534
9.5655215979 507.3062685986 29.0220533012 15.6884191331 -0.6079564122
9.4074136019 507.4723868251 28.8510884337 15.2310838592 0.5161657253
9.2493056059 507.6038022197 26.3237923378 13.8548883267 -0.1405620825
9.0911976099 507.7719183282 27.5641763686 13.3568923057 0.9384047320
8.9330896139 507.8382329293 28.2846389421 12.3435137601 1.1072913914
8.7749816179 507.9258607838 25.4456590991 11.6926615794 -0.4245102539
8.6168736219 507.9567864879 23.7711663545 11.4064631286 -0.2445172708
8.4587656260 508.0401320899 22.8741638459 9.9832146609 -0.2382469710
8.3006576300 508.1605402862 21.9343119220 18.7922688571 -0.9942832912
8.1425496340 508.3743965816 20.2552816183 9.9191694443 0.6469519325
7.9844416380 508.5151530166 20.3362033817 9.0544927541 0.1506460401
7.8263336420 508.5383510643 19.8431010764 8.8754668752 0.1638373330
7.6682256460 508.5369864732 19.0017609257 9.1473896488 0.0975656108
7.5101176500 508.4002258020 19.8957744807 9.2468993035 0.6438385599
7.3520096540 508.2897693195 19.7581886337 8.7933266040 0.6622008835
7.1939016581 508.2226254089 20.0635530277 8.4412504808 0.0825143096
7.0357936621 508.1474296573 20.4659796483 9.6421732254 0.1255747563
6.8776856661 508.1410967486 21.3726252187 9.1700134119 0.0411083644
6.7195776701 508.1275186908 22.2751681175 8.3962166224 -0.1233489479
6.5614696741 508.0815070934 22.8595372509 8.4790377965 -0.2493984559
6.4033616781 507.9949347237 23.7499373978 9.6524937805 0.6643400001
6.2452536821 507.8703649018 23.4407225992 10.2813439071 0.9570952557
6.0871456861 507.7612051577 22.0902284497 9.7584132151 0.6151312295
5.9290376902 507.6905102947 22.1551760172 9.5747375107 0.4147360102
5.7709296942 507.6566518507 23.5074536421 9.7139232653 0.2903062858
5.6128216982 507.4846681445 26.5314505440 9.8354000238 0.6247638516
5.4547137022 507.3035695732 27.5663403846 9.6830679546 0.0928569659
5.2966057062 507.0916734638 26.6011448222 9.3796298340 -0.4261375944
5.1384977102 506.8252238695 28.5402119992 9.7662059061 -0.8088900442
4.9803897142 506.5607344612 27.5128843010 10.7022366041 -1.1254821887
4.8222817183 506.4370542621 26.5944013227 11.0983991642 -1.0093939532
4.6641737223 506.3191867686 26.9020074034 11.1477393711 -0.2882523008
4.5060657263 506.0981456375 28.8712545243 11.7377651850 -0.2806990887
4.3479577303 505.8435023944 31.5611533350 12.6720957174 0.6415106635
4.1898497343 505.5774448372 32.6809495235 12.8677624246 -0.1126250570
4.0317417383 505.2752067696 33.7441074957 13.3458603797 -0.3635686630
3.8736337423 504.8012564060 34.1269276480 14.7571228097 -0.3680138047
3.7155257463 504.2578325263 37.1812714218 16.1999275845 -0.6438932167
3.5574177504 503.6736367772 39.0819125915 18.4494978391 -0.3837289387
3.3993097544 503.0721913910 41.3780417730 20.4626313332 -0.0552029277
3.2412017584 502.4993119466 43.8270782362 26.7551318131 -0.1009603100
3.0830937624 501.8712758831 45.0508829977 32.6338043483 -2.1179502322
2.9249857664 501.0275665826 51.4531683802 36.6511401260 -4.7316590022
2.7668777704 499.8314836871 65.5434902014 44.0834591405 -8.5238552579
2.6087697744 497.8790630136 87.0820173988 55.7086859601 -20.1956682687
2.4506617785 495.2058668601 123.4807489624 76.3488914295 -37.7635778202
2.2925537825 491.8348444813 156.7862832026 84.8166855261 -48.7960701506
2.1344457865 487.2854638124 221.4683536470 95.5079611942 -61.3263377004
1.9763377905 481.3082836422 311.2634955831 116.7041360878 -74.6315634985
1.8182297945 473.9105566590 420.1396858049 142.9646117871 -88.7575759326
1.6601217985 465.8041771925 542.5874394172 167.7388270154 -110.6940180790
