# Kim, K. U., Elliott, G. S., and Dutton, J. C., “A Three-Dimensional Experimental Study of Compressibility Effects on Turbulent Free Shear Layers,” AIAA Aviation Conference, Atlanta, GA, 2018.
# This work was funded by the NASA Aeronautics Mission Directorate's Transformative Aeronautics Concepts Program, Transformational Tools and Technologies Project; Grant Number NNX15AU94A.
VARIABLES = "y (mm)", "U (m/s)", "Rexx (m/s)^2", "Reyy (m/s)^2", "Rexy (m/s)^2"
ZONE T="Frame 0", I=101, J=1, F=POINT
0.9517103881 56.6183794446 50.8068398643 11.8247954795 -6.8443131428
1.1605783850 58.5291734416 59.4239875756 11.1233512535 -6.2488836067
1.3694463819 60.4418644141 69.1804317671 11.0604842197 -5.1692900422
1.5783143789 62.2904817028 76.0817378230 10.4774609246 -4.1848054958
1.7871823758 64.0734397714 79.5360778507 9.8129700711 -3.3649386525
1.9960503727 65.8181583228 79.3560609491 9.1949866187 -2.8467668541
2.2049183697 67.5123952940 76.4411577105 8.7338777876 -2.6236049627
2.4137863666 69.0962072641 71.8603371344 8.4416894564 -2.6885564306
2.6226543635 70.5313224021 66.1923180741 8.1311818447 -2.9141411124
2.8315223604 71.8218102667 60.3768564968 7.8002525126 -3.2708049995
3.0403903574 72.9930389933 54.4450695717 7.5063356549 -3.7099757718
3.2492583543 74.0566441381 48.5191180727 7.2320366701 -4.1750222568
3.4581263512 74.9863293433 43.1067837065 6.9748332904 -4.5034523897
3.6669943482 75.7802181818 38.3499710148 6.6835653566 -4.5886113080
3.8758623451 76.4511517916 34.0587993078 6.2932994439 -4.5274938972
4.0847303420 77.0028424293 30.4951807180 5.8592374685 -4.4957663000
4.2935983390 77.4558269223 27.7058183254 5.4036663805 -4.3838419943
4.5024663359 77.8291108993 25.3381935517 4.9391144822 -4.1109591713
4.7113343328 78.1256872970 23.2327506248 4.5611492759 -3.8248887855
4.9202023298 78.3540186407 21.4910228172 4.2482838302 -3.5866265096
5.1290703267 78.5304023389 19.8928613873 3.9666916710 -3.3687274696
5.3379383236 78.6681320501 18.5026819687 3.7873812009 -3.1377276752
5.5468063205 78.7795111983 17.4696113374 3.6044341749 -2.9307997440
5.7556743175 78.8709898164 16.6670552153 3.4462637963 -2.7275891038
5.9645423144 78.9451704370 16.0376306986 3.3281189482 -2.5351776498
6.1734103113 79.0087447055 15.5491597736 3.2563563386 -2.4214090133
6.3822783083 79.0595804845 15.2223037588 3.2154830165 -2.3735925685
6.5911463052 79.0990501495 14.9733653316 3.1783067196 -2.3504803967
6.8000143021 79.1344896940 14.7131189508 3.1810735220 -2.3565127239
7.0088822991 79.1689417869 14.4715343589 3.2129798614 -2.3803715394
7.2177502960 79.1960223640 14.4026122584 3.2427325622 -2.3977098758
7.4266182929 79.2227996542 14.4624858306 3.2576491290 -2.4116073655
7.6354862899 79.2484285053 14.5127103274 3.2453882440 -2.4376878092
7.8443542868 79.2763797574 14.4836107547 3.2108506657 -2.4107161238
8.0532222837 79.3034074416 14.5042894901 3.1637816971 -2.3777304931
8.2620902807 79.3297866525 14.6265445803 3.1058146513 -2.3332811057
8.4709582776 79.3542895551 14.7806508174 3.0659933717 -2.2450856599
8.6798262745 79.3804899803 14.8884259508 3.0197690572 -2.0931651447
8.8886942714 79.4029411710 14.9079286682 2.9403046801 -1.9129523290
9.0975622684 79.4216459346 14.9272411866 2.8751859871 -1.7581785826
9.3064302653 79.4402187637 14.9284400412 2.8252628619 -1.6420090305
9.5152982622 79.4712974763 14.9335702951 2.8066599433 -1.5735549028
9.7241662592 79.5031185819 14.9804356016 2.8089599376 -1.5471779915
9.9330342561 79.5272752268 15.0523217966 2.8213046811 -1.5376413303
10.1419022530 79.5465093435 15.1415852724 2.8361161455 -1.5279387091
10.3507702500 79.5717947262 15.2720698653 2.8505935948 -1.5309503652
10.5596382469 79.6026715618 15.4483792273 2.8634867739 -1.5779383681
10.7685062438 79.6254296381 15.5663496576 2.8948656107 -1.6035086760
10.9773742408 79.6422668832 15.6073724172 2.9136548725 -1.5800034496
11.1862422377 79.6645700967 15.6336188718 2.9049993422 -1.5335386611
11.3951102346 79.6914976568 15.6640165833 2.9076471837 -1.4883557167
11.6039782315 79.7152906650 15.7236369291 2.8912541890 -1.4528971750
11.8128462285 79.7341268399 15.7933939951 2.8640086421 -1.3771131777
12.0217142254 79.7534230061 15.8155915637 2.8193043689 -1.2561082573
12.2305822223 79.7750897155 15.8352781392 2.7967192630 -1.1425915436
12.4394502193 79.7983531882 15.9202978936 2.7718616309 -1.0761244642
12.6483182162 79.8219361675 16.0772533667 2.7580619635 -1.0447627350
12.8571862131 79.8478474040 16.1754315375 2.7754619787 -1.0090566649
13.0660542101 79.8791367829 16.2213679988 2.8005211573 -0.9956693050
13.2749222070 79.9050017207 16.2591568735 2.8066168818 -1.0308203377
13.4837902039 79.9257146308 16.3388749783 2.8096383342 -1.0733821681
13.6926582009 79.9417395063 16.3969228226 2.8097490813 -1.0706485433
13.9015261978 79.9535890191 16.3270579195 2.7952262346 -1.0207027778
14.1103941947 79.9706058694 16.3155839246 2.8295284560 -0.9745835699
14.3192621917 79.9903129019 16.4042875418 2.8882214335 -0.9442691382
14.5281301886 80.0049227533 16.5048017747 2.9047706904 -0.8956740346
14.7369981855 80.0191190405 16.6009920801 2.9183469437 -0.8212299255
14.9458661824 80.0382709337 16.6315196338 2.9189137297 -0.7589643015
15.1547341794 80.0637070728 16.6779955969 2.9170306670 -0.7115147896
15.3636021763 80.0848365992 16.7602001808 2.9315031832 -0.6761678053
15.5724701732 80.0998390754 16.7917994201 2.9378522583 -0.6712648964
15.7813381702 80.1142789243 16.8121403708 2.9358985784 -0.6519045933
15.9902061671 80.1267147686 16.9655551992 2.9518335932 -0.6252042618
16.1990741640 80.1448496791 17.1690256110 2.9936791993 -0.6340193108
16.4079421610 80.1726894639 17.3127014113 3.0293679794 -0.6418944752
16.6168101579 80.1956708055 17.3678023055 3.0656478939 -0.6365130196
16.8256781548 80.2078789707 17.3253886877 3.0675811210 -0.6318925385
17.0345461518 80.2153358725 17.3077244299 3.0553983509 -0.6333743014
17.2434141487 80.2300790281 17.3212134158 3.0616676669 -0.5834582462
17.4522821456 80.2443171748 17.2558872784 3.0711493622 -0.5189987287
17.6611501426 80.2497672749 17.2172715347 3.1093920451 -0.4782009584
17.8700181395 80.2538223388 17.2200653666 3.1421914111 -0.4737391998
18.0788861364 80.2651945084 17.2007153984 3.1780467232 -0.4735047821
18.2877541333 80.2812901010 17.2372380718 3.1985822672 -0.4811813208
18.4966221303 80.2914666756 17.3518656564 3.1911617858 -0.5077716897
18.7054901272 80.2939879498 17.4904899060 3.2098284366 -0.5006205694
18.9143581241 80.3001802842 17.5573468668 3.2126253934 -0.4630238377
19.1232261211 80.3144701502 17.6145352044 3.2336213292 -0.4621701565
19.3320941180 80.3290777494 17.6432611524 3.2923854789 -0.4836740001
19.5409621149 80.3428932198 17.7148382207 3.3306283157 -0.4970023406
19.7498301119 80.3536382233 17.8064975936 3.3295764813 -0.5489182366
19.9586981088 80.3610059093 17.8619019917 3.3295408976 -0.5635997837
20.1675661057 80.3626054518 17.8484260039 3.3457704777 -0.5191973123
20.3764341027 80.3640029359 17.7778839558 3.3700140827 -0.4848950351
20.5853020996 80.3640946927 17.7506007452 3.3980727985 -0.4630003442
20.7941700965 80.3646811243 17.7526573728 3.4451710995 -0.4284314656
21.0030380934 80.3713523204 17.7104025703 3.5097052569 -0.4091345455
21.2119060904 80.3810561918 17.7027937554 3.5786144483 -0.4025743331
21.4207740873 80.3851456158 17.7936743438 3.6283469476 -0.3867342323
21.6296420842 80.3801435101 17.8390308468 3.6195267604 -0.3716020061
21.8385100812 80.3783797383 17.8116428725 3.6116066500 -0.3911324961
