# Kim, K. U., Elliott, G. S., and Dutton, J. C., “A Three-Dimensional Experimental Study of Compressibility Effects on Turbulent Free Shear Layers,” AIAA Aviation Conference, Atlanta, GA, 2018.
# This work was funded by the NASA Aeronautics Mission Directorate's Transformative Aeronautics Concepts Program, Transformational Tools and Technologies Project; Grant Number NNX15AU94A.
VARIABLES = "z (mm)", "y (mm)", "U (m/s)", "V (m/s)", "W (m/s)", "|V| (m/s)"
ZONE T="Frame 0", I=132, J=111, F=POINT
33.1877559274 25.1703066975 566.9888153931 29.1318963631 -6.8822512240 567.7784335006
32.6881271154 25.1703066975 567.3278259804 27.9675349607 -7.3020073291 568.0636975327
32.1884983033 25.1703066975 567.5333596311 26.9448607680 -7.7076313584 568.2249091664
31.6888694912 25.1703066975 567.6116831926 26.1857668892 -8.0408817227 568.2722701867
31.1892406791 25.1703066975 567.5091843154 25.3745307063 -7.9689409118 568.1320666097
30.6896118671 25.1703066975 567.2486712152 24.6584708243 -7.5092947078 567.8340291721
30.1899830550 25.1703066975 566.9777141176 24.1590025033 -6.9745789852 567.5350477812
29.6903542429 25.1703066975 566.7888167072 23.8546365529 -6.5435488443 567.3283215748
29.1907254308 25.1703066975 566.6006576693 23.6942143525 -6.1090205490 567.1287695023
28.6910966188 25.1703066975 566.3813793437 23.5582157313 -5.6380717881 566.8991482170
28.1914678067 25.1703066975 566.2087872842 23.4934016423 -5.0673518170 566.7186328091
27.6918389946 25.1703066975 566.1204805397 23.5892992143 -4.5661992866 566.6301295376
27.1922101825 25.1703066975 566.1146564746 23.6209676488 -4.2357953240 566.6230637294
26.6925813705 25.1703066975 566.0151057455 23.6749262224 -4.0013949304 566.5241506107
26.1929525584 25.1703066975 565.7748203366 23.7797490908 -3.8581542308 566.2874792434
25.6933237463 25.1703066975 565.3392817269 23.7762866788 -3.7348270758 565.8513622897
25.1936949342 25.1703066975 564.8059042061 23.6914981777 -3.3226205887 565.3123351914
24.6940661222 25.1703066975 564.2908397468 23.4729232204 -2.7407708409 564.7854829680
24.1944373101 25.1703066975 563.8968453134 23.3460631226 -2.1068062965 564.3838493885
23.6948084980 25.1703066975 563.5576064528 23.2279446267 -1.6558900769 564.0385227751
23.1951796860 25.1703066975 563.4115285993 22.9857456923 -1.4568902907 563.8820954712
22.6955508739 25.1703066975 563.2032995185 22.7393180632 -1.4585812185 563.6640494423
22.1959220618 25.1703066975 563.1401382631 22.4965019071 -1.3079960363 563.5908256658
21.6962932497 25.1703066975 563.3518444591 22.2671045396 -0.6781437407 563.7921465212
21.1966644377 25.1703066975 563.8326312575 21.9362828139 0.6827770772 564.2596058189
20.6970356256 25.1703066975 564.5522329476 21.6203596148 2.5170836621 564.9716801630
20.1974068135 25.1703066975 565.3995699235 21.2484077277 4.2991799550 565.8150328940
19.6977780014 25.1703066975 565.9452545440 20.8990536056 5.4239699281 566.3569731470
19.1981491894 25.1703066975 566.0255276332 20.6416625881 5.7348784076 566.4308121891
18.6985203773 25.1703066975 565.7523396016 20.4254607104 5.3032650377 566.1457708311
18.1988915652 25.1703066975 565.3685332902 20.3089271457 4.4266165121 565.7504979143
17.6992627531 25.1703066975 565.1958857370 20.3739296497 3.5400479911 565.5740607588
17.1996339411 25.1703066975 565.3018914871 20.4806533920 3.0102802227 565.6807823050
16.7000051290 25.1703066975 565.5652453730 20.7939356746 2.8436003667 565.9545216691
16.2003763169 25.1703066975 565.9651506087 21.1341359164 3.0618906258 566.3678827217
15.7007475048 25.1703066975 566.2035618431 21.5496740365 3.4230178451 566.6238425499
15.2011186928 25.1703066975 566.3772329388 21.9248617778 3.7106475030 566.8135835178
14.7014898807 25.1703066975 566.3202728957 22.2510594454 3.9839956867 566.7712354740
14.2018610686 25.1703066975 566.1970529940 22.4605428426 4.2495743666 566.6583077006
13.7022322565 25.1703066975 565.9698107600 22.5713038584 4.4322791981 566.4370534741
13.2026034445 25.1703066975 565.6513783857 22.6321557269 4.4640351533 566.1215628753
12.7029746324 25.1703066975 565.3697044351 22.7045030945 4.3120393097 565.8418425998
12.2033458203 25.1703066975 565.0534354187 22.7883526716 4.0071143539 565.5269674043
11.7037170082 25.1703066975 564.7019786169 22.8676255466 3.6200104827 565.1763949670
11.2040881962 25.1703066975 564.3393992677 23.0168068705 3.1228397733 564.8172121072
10.7044593841 25.1703066975 563.9747426537 23.1744181826 2.4359619059 564.4559308926
10.2048305720 25.1703066975 563.3103912767 23.3810563404 1.8900799322 563.7985838205
9.7052017599 25.1703066975 562.6943822048 23.6382409426 1.3057576984 563.1921867382
9.2055729479 25.1703066975 562.2607491323 23.8348657392 0.8727066068 562.7663924369
8.7059441358 25.1703066975 562.0017525737 24.0938367245 0.8639464720 562.5186479287
8.2063153237 25.1703066975 561.8667339579 24.2357628096 1.1432941947 562.3903502454
7.7066865116 25.1703066975 561.7506519750 24.3203854748 1.6965088664 562.2794272302
7.2070576996 25.1703066975 561.5127107522 24.3116029683 2.2555794489 562.0432954977
6.7074288875 25.1703066975 561.0812964852 24.2406439857 2.5511015085 561.6104861959
6.2078000754 25.1703066975 560.6062167195 24.1792935301 2.4224250406 561.1326372644
5.7081712633 25.1703066975 560.1113369726 24.1180820447 1.9878617435 560.6338763230
5.2085424513 25.1703066975 559.4354648615 24.0588543072 1.4542751839 559.9544470149
4.7089136392 25.1703066975 558.7759488940 24.2385233597 0.9932213735 559.3022917580
4.2092848271 25.1703066975 558.0977654716 24.4847673887 0.4292931757 558.6347679398
3.7096560150 25.1703066975 557.3434198604 24.8793933355 -0.2061838913 557.8984803584
3.2100272030 25.1703066975 556.6049495693 25.2676044197 -0.8846397817 557.1788799889
2.7103983909 25.1703066975 555.8068439417 25.5830458155 -1.6782677914 556.3978402082
2.2107695788 25.1703066975 555.0371208347 25.7213377534 -2.4814878044 555.6383270636
1.7111407667 25.1703066975 554.2027039825 25.8994967828 -3.1868833543 554.8167060035
1.2115119547 25.1703066975 553.5272701026 26.0032619765 -3.7301887172 554.1502708549
0.7118831426 25.1703066975 553.2257057707 26.0311423188 -3.7078726763 553.8502055752
0.2122543305 25.1703066975 553.4950234108 26.0018336428 -2.9145318082 554.1131028851
-0.2873744816 25.1703066975 554.2115570129 25.9574271159 -1.1907883902 554.8203816788
-0.7870032936 25.1703066975 555.1039048226 25.7655286748 0.8915915879 555.7022607051
-1.2866321057 25.1703066975 555.8724468899 25.5878615626 2.7175776591 556.4676999602
-1.7862609178 25.1703066975 556.3759839910 25.5427233772 3.8808200940 556.9755174548
-2.2858897299 25.1703066975 556.6169440942 25.7116387326 4.2992462741 557.2270581527
-2.7855185419 25.1703066975 556.8165786822 25.8843883765 4.1088197981 557.4330329799
-3.2851473540 25.1703066975 556.9356060668 26.0980798397 3.6648380092 557.5587952081
-3.7847761661 25.1703066975 556.9485438078 26.2603232461 3.2528340514 557.5767803236
-4.2844049782 25.1703066975 556.9440021947 26.3453802607 2.9965124074 557.5748198479
-4.7840337902 25.1703066975 556.9829126871 26.4900604691 2.9326527001 557.6202011951
-5.2836626023 25.1703066975 557.0077207505 26.6934017710 2.8910857751 557.6544602626
-5.7832914144 25.1703066975 557.0653822856 26.9698281820 2.9450730378 557.7256361585
-6.2829202265 25.1703066975 557.1567250990 27.3078692848 3.0601711870 557.8339364862
-6.7825490385 25.1703066975 557.2225839554 27.6111667473 3.2009156820 557.9154330724
-7.2821778506 25.1703066975 557.2347716884 27.8898010446 3.2480538056 557.9417367741
-7.7818066627 25.1703066975 557.1607725445 28.1522054839 3.2444470833 557.8809905104
-8.2814354748 25.1703066975 557.0574586769 28.3721495104 3.4023182221 557.7898949468
-8.7810642868 25.1703066975 556.8127408082 28.6118530121 3.9491476131 557.5613528805
-9.2806930989 25.1703066975 556.3578877697 28.7529612378 4.8434925968 557.1214333375
-9.7803219110 25.1703066975 555.6644478623 28.8372520690 6.0665574030 556.4452972608
-10.2799507231 25.1703066975 554.9050385328 28.8624511653 7.3269346400 555.7034522545
-10.7795795351 25.1703066975 554.2513705433 28.7061094840 8.3779265135 555.0574854224
-11.2792083472 25.1703066975 553.8499681355 28.4268297709 8.9481924951 554.6511894907
-11.7788371593 25.1703066975 553.7762128628 28.1319476413 9.0472372004 554.5641107317
-12.2784659714 25.1703066975 553.8861053174 27.7935985326 8.6917076394 554.6511043572
-12.7780947834 25.1703066975 554.1493650700 27.5089361241 8.0893372458 554.8907079338
-13.2777235955 25.1703066975 554.5039617375 27.1602673170 7.2516867865 555.2160936650
-13.7773524076 25.1703066975 554.9359218119 26.9377598088 6.4324839006 555.6265806005
-14.2769812196 25.1703066975 555.2805075624 26.8562815179 5.6912647499 555.9587146813
-14.7766100317 25.1703066975 555.5968816254 26.8286075856 5.0990019852 556.2676234315
-15.2762388438 25.1703066975 555.8377853678 26.9979733418 4.7582707601 556.5134098544
-15.7758676559 25.1703066975 555.8888900267 27.2417141313 4.5755407428 556.5747969653
-16.2754964679 25.1703066975 555.8238829185 27.4019668687 4.4307418816 556.5165658671
-16.7751252800 25.1703066975 555.8210555036 27.4476089318 4.3731209881 556.5155354205
-17.2747540921 25.1703066975 555.7192314553 27.5278407618 4.5730787027 556.4194095061
-17.7743829042 25.1703066975 555.5775035790 27.5618822448 5.0916165969 556.2840500998
-18.2740117162 25.1703066975 555.4030623206 27.6876371721 5.5104150954 556.1200693751
-18.7736405283 25.1703066975 555.3216414551 27.7236871070 5.6667534759 556.0421210576
-19.2732693404 25.1703066975 555.5197221464 27.6466559235 5.4283354588 556.2337333381
-19.7728981525 25.1703066975 555.7470239511 27.6331620453 4.9768091634 556.4558517120
-20.2725269645 25.1703066975 555.9278695409 27.7248434292 4.4890146558 556.6368783399
-20.7721557766 25.1703066975 556.1155649051 27.9514942070 3.9866198559 556.8318423869
-21.2717845887 25.1703066975 556.2811412646 28.2498868959 3.5790623840 557.0094917718
-21.7714134008 25.1703066975 556.5356665102 28.6097378509 3.0359394965 557.2788190184
-22.2710422128 25.1703066975 556.8999349791 28.9276706029 2.3500092764 557.6556914888
-22.7706710249 25.1703066975 557.1359028121 29.3585016643 1.9760984002 557.9123952621
-23.2702998370 25.1703066975 557.2161597905 29.6144521998 1.6430123367 558.0049856410
-23.7699286491 25.1703066975 557.1478923674 29.6751097148 1.7239098280 557.9402817248
-24.2695574611 25.1703066975 556.8805779843 29.6588327554 1.9776321235 557.6733233044
-24.7691862732 25.1703066975 556.5154688940 29.4617075999 2.3070169085 557.2995439259
-25.2688150853 25.1703066975 556.1419530197 29.1485795467 2.7647633085 556.9121613992
-25.7684438974 25.1703066975 555.7183508637 28.8124123922 2.9566449171 556.4726249724
-26.2680727094 25.1703066975 555.3648514757 28.6599815970 3.0151534163 556.1120426226
-26.7677015215 25.1703066975 555.1916641675 28.9111460007 2.9953127108 555.9519855369
-27.2673303336 25.1703066975 555.0471652394 29.0359632561 2.7861128881 555.8131027850
-27.7669591457 25.1703066975 555.2812022486 28.9306850084 2.6146768830 556.0404973029
-28.2665879577 25.1703066975 555.4527790630 28.8966742983 2.5511134157 556.2097767335
-28.7662167698 25.1703066975 555.6999842640 28.9623391518 2.6678475360 556.4606068812
-29.2658455819 25.1703066975 555.9271636091 29.1255901746 2.6287373248 556.6958069731
-29.7654743940 25.1703066975 556.0705165857 29.0992429995 2.8517724108 556.8386821737
-30.2651032060 25.1703066975 555.7050964598 28.9478849932 3.0833440065 556.4671071026
-30.7647320181 25.1703066975 555.5500698430 28.8860656467 3.3141017175 556.3104063033
-31.2643608302 25.1703066975 555.2951118474 28.5811012777 3.5110722836 556.0412468697
-31.7639896423 25.1703066975 555.2761272881 28.4301362658 3.6445266512 556.0154069436
-32.2636184543 25.1703066975 555.4596846043 28.5565830062 3.6861239682 556.2054720727
33.1877559274 24.6706778854 566.9330153464 28.3698611098 -7.0379361703 567.6860271794
32.6881271154 24.6706778854 567.3192950949 27.3113001975 -7.4225777347 568.0248096392
32.1884983033 24.6706778854 567.5707460895 26.4283072465 -7.7945542034 568.2391770335
31.6888694912 24.6706778854 567.7264068015 25.7874800505 -8.1052165277 568.3695643171
31.1892406791 24.6706778854 567.6295893683 25.2562457773 -8.1144990247 568.2491300228
30.6896118671 24.6706778854 567.3705886819 24.7614632020 -7.7282233013 567.9632385961
30.1899830550 24.6706778854 567.0412699698 24.4538379783 -7.2355186671 567.6144331950
29.6903542429 24.6706778854 566.7838719921 24.3493685899 -6.8161265277 567.3476085099
29.1907254308 24.6706778854 566.5723454483 24.2272897821 -6.2984403393 567.1250783978
28.6910966188 24.6706778854 566.4177624870 24.0875505838 -5.7132093883 566.9584927624
28.1914678067 24.6706778854 566.3196397857 24.1029588823 -5.2106353197 566.8562761003
27.6918389946 24.6706778854 566.2056804677 24.2182492481 -4.7624643951 566.7433963071
27.1922101825 24.6706778854 566.1038690914 24.2778994316 -4.4499515937 566.6416937274
26.6925813705 24.6706778854 565.9350608627 24.3258971771 -4.2686254881 566.4737094965
26.1929525584 24.6706778854 565.6378872983 24.4263169002 -4.1690455947 566.1804000898
25.6933237463 24.6706778854 565.2423448747 24.4916526507 -4.0111393108 565.7869198979
25.1936949342 24.6706778854 564.7346847266 24.4816296189 -3.6706020944 565.2770008074
24.6940661222 24.6706778854 564.3596513689 24.3938745274 -3.1451443792 564.8953612315
24.1944373101 24.6706778854 564.0178242188 24.2998385664 -2.7648609499 564.5478125428
23.6948084980 24.6706778854 563.7769017940 24.1238435012 -2.4891628821 564.2982817213
23.1951796860 24.6706778854 563.5208333991 23.9129095038 -2.3989854982 564.0330770861
22.6955508739 24.6706778854 563.3181676387 23.7589767844 -2.3827748813 563.8240191636
22.1959220618 24.6706778854 563.2735270219 23.7013735711 -2.1356627280 563.7760037534
21.6962932497 24.6706778854 563.4126182258 23.5858623256 -1.4242104822 563.9078822407
21.1966644377 24.6706778854 563.8653692362 23.3962789122 -0.1084923941 564.3505579526
20.6970356256 24.6706778854 564.4965583271 23.0698014444 1.6901593108 564.9702972196
20.1974068135 24.6706778854 565.1453442260 22.6285851960 3.4973527227 565.6090031500
19.6977780014 24.6706778854 565.5713864000 22.1851109664 4.7943758353 566.0266409832
19.1981491894 24.6706778854 565.5752435016 21.7396896605 5.3498748153 566.0181899277
18.6985203773 24.6706778854 565.2442841359 21.3423478413 5.1028551061 565.6700767142
18.1988915652 24.6706778854 564.9003788808 21.0065109906 4.3768246675 565.3077641054
17.6992627531 24.6706778854 564.6562446318 20.9255474912 3.6459319142 565.0556131560
17.1996339411 24.6706778854 564.6523208463 20.9880470422 3.2847753956 565.0517952410
16.7000051290 24.6706778854 564.9617662290 21.2264154945 3.3494885135 565.3703008548
16.2003763169 24.6706778854 565.3544096750 21.5246888399 3.5866505086 565.7753837262
15.7007475048 24.6706778854 565.7462167027 21.9199106506 3.8533253186 566.1838149509
15.2011186928 24.6706778854 565.9379414388 22.3284377056 4.1357544154 566.3933413759
14.7014898807 24.6706778854 565.8427963380 22.7151797349 4.3352299143 566.3151452826
14.2018610686 24.6706778854 565.7264394471 22.9677611191 4.3990899484 566.2095675037
13.7022322565 24.6706778854 565.5567485044 23.0109749532 4.4143741762 566.0418954870
13.2026034445 24.6706778854 565.2541645490 22.9365854887 4.3719723949 565.7362208985
12.7029746324 24.6706778854 564.9983753839 22.8802506657 4.2313608722 565.4772979279
12.2033458203 24.6706778854 564.7712775433 22.9263106276 4.0465052723 565.2509052287
11.7037170082 24.6706778854 564.5476686455 22.8561624437 3.6646711104 565.0220386401
11.2040881962 24.6706778854 564.3055896814 22.9279431314 3.1926544391 564.7802069516
10.7044593841 24.6706778854 563.8886493050 23.0876792708 2.6425471333 564.3672853776
10.2048305720 24.6706778854 563.2982974659 23.3322596549 2.1568501675 563.7854363774
9.7052017599 24.6706778854 562.6705404087 23.6473248866 1.6473136715 563.1696428790
9.2055729479 24.6706778854 562.3160256970 23.9307267438 1.2993844686 562.8265104259
8.7059441358 24.6706778854 562.1080012986 24.2535140060 1.2527624050 562.6323910683
8.2063153237 24.6706778854 562.0578565852 24.3821691232 1.4580365939 562.5883487871
7.7066865116 24.6706778854 562.0401597109 24.5054321935 1.8559515785 562.5771963839
7.2070576996 24.6706778854 561.8337955461 24.4718807204 2.3151611896 562.3712712568
6.7074288875 24.6706778854 561.4714634176 24.4193504113 2.5901982131 562.0082010376
6.2078000754 24.6706778854 561.0563578761 24.3011640892 2.3989404339 561.5875160690
5.7081712633 24.6706778854 560.5577334088 24.1844193868 1.9624544032 561.0826230180
5.2085424513 24.6706778854 559.9441465148 24.0515238549 1.4653322410 560.4623718097
4.7089136392 24.6706778854 559.2852502934 24.1163807254 1.0000331823 559.8058512390
4.2092848271 24.6706778854 558.6393140589 24.2923430270 0.4904482974 559.1674540614
3.7096560150 24.6706778854 557.9075577961 24.5757950212 -0.1017362847 558.4485859032
3.2100272030 24.6706778854 557.1639611549 24.9135477871 -0.7952923564 557.7212538205
2.7103983909 24.6706778854 556.3719733940 25.2545197777 -1.5905565720 556.9471190496
2.2107695788 24.6706778854 555.5499355893 25.4624390498 -2.4844493123 556.1386870413
1.7111407667 24.6706778854 554.7055974859 25.6312753525 -3.3055960151 555.3072925178
1.2115119547 24.6706778854 553.9397226672 25.6591308251 -3.8204882117 554.5468451569
0.7118831426 24.6706778854 553.5460541669 25.6011262950 -3.7773455772 554.1506294239
0.2122543305 24.6706778854 553.6966400647 25.4957116564 -2.9760669839 554.2913110509
-0.2873744816 24.6706778854 554.2129033983 25.3509266589 -1.3388846526 554.7940197837
-0.7870032936 24.6706778854 554.9942171039 25.1556805983 0.7135479720 555.5644862982
-1.2866321057 24.6706778854 555.6723174617 24.8952153397 2.5599827256 556.2356062422
-1.7862609178 24.6706778854 556.0860226052 24.8099850983 3.8165814079 556.6522848162
-2.2858897299 24.6706778854 556.3453623300 24.8771805431 4.3082610453 556.9179449533
-2.7855185419 24.6706778854 556.4498083743 25.0317257280 4.2451272314 557.0287224532
-3.2851473540 24.6706778854 556.5248938403 25.2295352535 3.8880492626 557.1100464362
-3.7847761661 24.6706778854 556.5719969127 25.4145021039 3.4756886098 557.1627814884
-4.2844049782 24.6706778854 556.5760143843 25.6226004635 3.2221400951 557.1748016819
-4.7840337902 24.6706778854 556.6282776397 25.8089821425 3.1869221081 557.2354076150
-5.2836626023 24.6706778854 556.6484919459 26.0597691600 3.2648416102 557.2677223248
-5.7832914144 24.6706778854 556.7354915462 26.3803375913 3.3927625620 557.3704697922
-6.2829202265 24.6706778854 556.8808428792 26.7241156458 3.5353263376 557.5329138761
-6.7825490385 24.6706778854 556.9873390800 27.1473687336 3.6673205772 557.6605820432
-7.2821778506 24.6706778854 557.0054150578 27.4754361441 3.7656794703 557.6953580019
-7.7818066627 24.6706778854 556.9959371340 27.8847844595 3.7497990806 557.7061019761
-8.2814354748 24.6706778854 556.9916966402 28.2685041027 3.7646546056 557.7212844016
-8.7810642868 24.6706778854 556.8302096275 28.7086067040 4.1946294581 557.5855641684
-9.2806930989 24.6706778854 556.4215991980 28.9965375969 5.0355479977 557.1993826184
-9.7803219110 24.6706778854 555.7694324789 29.2498487495 6.1443172829 556.5725185137
-10.2799507231 24.6706778854 555.1552133185 29.2603891842 7.1885599716 555.9722624775
-10.7795795351 24.6706778854 554.6856285000 29.1133271933 8.0128936895 555.5069205240
-11.2792083472 24.6706778854 554.3482872562 28.8211290117 8.5054206179 555.1621594104
-11.7788371593 24.6706778854 554.2628590062 28.4388207975 8.5681571864 555.0581021116
-12.2784659714 24.6706778854 554.3728947963 28.0376111237 8.3137435613 555.1437043274
-12.7780947834 24.6706778854 554.5828823015 27.6632670317 7.7748249824 555.3268205194
-13.2777235955 24.6706778854 554.8266221691 27.2701453347 7.0292354061 555.5408640636
-13.7773524076 24.6706778854 555.1859794489 27.0071987761 6.2309578074 555.8774014093
-14.2769812196 24.6706778854 555.5034042553 26.9653648465 5.5411548950 556.1851017765
-14.7766100317 24.6706778854 555.6909424884 27.0392106385 5.0674807848 556.3714782742
-15.2762388438 24.6706778854 555.8597764524 27.2652321208 4.6999489347 556.5479076237
-15.7758676559 24.6706778854 555.9125020862 27.5118485327 4.5415283654 556.6113880126
-16.2754964679 24.6706778854 555.7863221499 27.6947097518 4.5349942726 556.4943836286
-16.7751252800 24.6706778854 555.6381290506 27.7503440445 4.5590246084 556.3493477616
-17.2747540921 24.6706778854 555.6125508977 27.8301817724 4.9140379915 556.3308130078
-17.7743829042 24.6706778854 555.5966264667 27.7909674899 5.2460152716 556.3159802589
-18.2740117162 24.6706778854 555.5065350633 27.7923926467 5.4997920481 556.2285279448
-18.7736405283 24.6706778854 555.4392060159 27.7047412189 5.5556407433 556.1574681776
-19.2732693404 24.6706778854 555.5959111237 27.6708303791 5.2947806574 556.3097392761
-19.7728981525 24.6706778854 555.7896442214 27.6893625420 4.9063472595 556.5005855030
-20.2725269645 24.6706778854 555.9448161502 27.7806793147 4.6310492840 556.6577506556
-20.7721557766 24.6706778854 556.0815414774 27.9555792933 4.2698924407 556.8001680738
-21.2717845887 24.6706778854 556.3458878447 28.3000874358 3.8871011434 557.0787659083
-21.7714134008 24.6706778854 556.6495520327 28.6935621997 3.3061846840 557.3983989456
-22.2710422128 24.6706778854 557.0248249569 29.0513541814 2.8689513608 557.7892681649
-22.7706710249 24.6706778854 557.2740205590 29.4296201249 2.2816617539 558.0552324914
-23.2702998370 24.6706778854 557.4994328239 29.8768007976 1.9908388236 558.3029681670
-23.7699286491 24.6706778854 557.4211622775 30.0550760146 1.8893060245 558.2340272917
-24.2695574611 24.6706778854 556.9998440139 30.1450745023 2.0286358673 557.8186686655
-24.7691862732 24.6706778854 556.5986443785 30.0491550841 2.4056288214 557.4143788020
-25.2688150853 24.6706778854 556.1391602029 29.6098375155 2.6374553136 556.9330876859
-25.7684438974 24.6706778854 555.7196135535 29.3853901794 3.0601579122 556.5044066406
-26.2680727094 24.6706778854 555.3519151395 29.2283889073 3.2024166659 556.1297544995
-26.7677015215 24.6706778854 555.2662229788 29.3526800947 3.2571532003 556.0510473480
-27.2673303336 24.6706778854 555.3031291437 29.5315101612 3.1837623740 556.0969444908
-27.7669591457 24.6706778854 555.3817770979 29.5466782935 3.1575262480 556.1761362218
-28.2665879577 24.6706778854 555.6792351122 29.8018552748 2.9645681278 556.4857155192
-28.7662167698 24.6706778854 555.9934762272 29.8331188841 2.8952128908 556.8008107459
-29.2658455819 24.6706778854 556.2494548811 30.0809104486 2.6901023007 557.0687155813
-29.7654743940 24.6706778854 556.3902106602 30.0764647286 2.7638241579 557.2093852162
-30.2651032060 24.6706778854 556.0986238423 29.9773336214 2.8885653440 556.9135155301
-30.7647320181 24.6706778854 555.9633705566 29.5363877272 3.2124643339 556.7566681484
-31.2643608302 24.6706778854 555.7508129320 29.2449966658 3.3991006635 556.5301337663
-31.7639896423 24.6706778854 555.6614792490 28.8589404841 3.6461782571 556.4223329297
-32.2636184543 24.6706778854 555.6595461946 28.9299231958 3.6366157873 556.4240259979
33.1877559274 24.1710490733 566.8876468138 27.5621908662 -6.9154779743 567.5994206401
32.6881271154 24.1710490733 567.2871352026 26.5840619051 -7.3021993382 567.9566253059
32.1884983033 24.1710490733 567.5089483383 25.7998684887 -7.6638536038 568.1467894041
31.6888694912 24.1710490733 567.6834288358 25.3637714992 -7.8488152645 568.3039681196
31.1892406791 24.1710490733 567.6989509748 24.9399248173 -7.8867690898 568.3012404653
30.6896118671 24.1710490733 567.5054242435 24.6249213699 -7.6761568765 568.0912925602
30.1899830550 24.1710490733 567.2083534496 24.5120635061 -7.2365047531 567.7838712762
29.6903542429 24.1710490733 566.9686325732 24.5113152036 -6.8695521846 567.5398009322
29.1907254308 24.1710490733 566.7767877311 24.5335048421 -6.3969021191 567.3435822563
28.6910966188 24.1710490733 566.6744108825 24.4851841517 -5.8676629706 567.2334983591
28.1914678067 24.1710490733 566.5371038523 24.4830246195 -5.4085827804 567.0916692242
27.6918389946 24.1710490733 566.3543260267 24.5452634180 -5.0283685075 566.9082615867
27.1922101825 24.1710490733 566.1851066854 24.5644459504 -4.7553152793 566.7376818782
26.6925813705 24.1710490733 565.9394937411 24.5076768916 -4.6039044115 566.4885989483
26.1929525584 24.1710490733 565.5457485056 24.5300100863 -4.4253977956 566.0947793375
25.6933237463 24.1710490733 565.1320034341 24.5784036106 -4.2033524686 565.6818429130
25.1936949342 24.1710490733 564.7528622530 24.6395951967 -3.8930647799 565.3035123080
24.6940661222 24.1710490733 564.3587411762 24.6436140282 -3.5322993801 564.9075796918
24.1944373101 24.1710490733 564.0702909863 24.6652215159 -3.3261983133 564.6191016261
23.6948084980 24.1710490733 563.8622101554 24.5766593057 -3.2007499718 564.4066344616
23.1951796860 24.1710490733 563.6566682556 24.5509321858 -3.1814091069 564.2000614181
22.6955508739 24.1710490733 563.5410523128 24.5681560520 -3.0900236318 564.0847987490
22.1959220618 24.1710490733 563.5493360739 24.7110446205 -2.8317795809 564.0979603678
21.6962932497 24.1710490733 563.7097157117 24.8622148068 -2.1336843635 564.2617530206
21.1966644377 24.1710490733 564.0273372037 24.8810628842 -0.8486942035 564.5765002949
20.6970356256 24.1710490733 564.5321467563 24.6628578462 0.7895783810 565.0711678297
20.1974068135 24.1710490733 565.0697913931 24.2003138221 2.5263788050 565.5934113159
19.6977780014 24.1710490733 565.3722725432 23.6908026006 3.8724926868 565.8816633256
19.1981491894 24.1710490733 565.3503692272 23.1754195959 4.5281232068 565.8433033611
18.6985203773 24.1710490733 565.0337907310 22.6626205245 4.4549756615 565.5056373238
18.1988915652 24.1710490733 564.6444301128 22.2809804172 3.9405183851 565.0976041631
17.6992627531 24.1710490733 564.3037053894 22.1059171335 3.5269567827 564.7475390939
17.1996339411 24.1710490733 564.1546454759 22.0466535943 3.5448083722 564.5963908963
16.7000051290 24.1710490733 564.3256752316 22.1863004366 3.8765835826 564.7749353087
16.2003763169 24.1710490733 564.6649263721 22.4448674672 4.2782418220 565.1270251046
15.7007475048 24.1710490733 565.0579688103 22.7836750445 4.5101368549 565.5350964344
15.2011186928 24.1710490733 565.2672015116 23.1781021819 4.7340549945 565.7620036748
14.7014898807 24.1710490733 565.2344730820 23.6214040292 4.7169923479 565.7474969502
14.2018610686 24.1710490733 565.1842078746 23.9354372012 4.5941756878 565.7094664534
13.7022322565 24.1710490733 565.0675095946 23.9954502811 4.4548950752 565.5943052434
13.2026034445 24.1710490733 564.8946713346 23.9781000983 4.3532878023 565.4201005458
12.7029746324 24.1710490733 564.7105763049 23.8202462683 4.1717599748 565.2281333269
12.2033458203 24.1710490733 564.6000668397 23.8050414015 3.9141066167 565.1152410810
11.7037170082 24.1710490733 564.4993145357 23.6869296310 3.5982413693 565.0075168417
11.2040881962 24.1710490733 564.2694821748 23.7535960047 3.2796169751 564.7787511269
10.7044593841 24.1710490733 563.9041868722 23.8387920445 2.8597587393 564.4150938788
10.2048305720 24.1710490733 563.2923427683 24.0122354949 2.3317638321 563.8087335235
9.7052017599 24.1710490733 562.6916054046 24.3115433572 1.9136931824 563.2198115787
9.2055729479 24.1710490733 562.3424434982 24.5481132206 1.5621847351 562.8801595752
8.7059441358 24.1710490733 562.1229099154 24.7553843036 1.4808236529 562.6696968404
8.2063153237 24.1710490733 562.1256592323 24.8402909567 1.6785546033 562.6767405605
7.7066865116 24.1710490733 562.1277240661 24.8574278719 2.0091310337 562.6806434307
7.2070576996 24.1710490733 561.9930789335 24.7415102515 2.3486315555 562.5423354458
6.7074288875 24.1710490733 561.6113020383 24.6870781577 2.4506225157 562.1589739174
6.2078000754 24.1710490733 561.2598172893 24.5710420088 2.1827393902 561.8016402257
5.7081712633 24.1710490733 560.8637385451 24.4017018627 1.7562557261 561.3970615373
5.2085424513 24.1710490733 560.3307643374 24.2783045064 1.3481021861 560.8581094289
4.7089136392 24.1710490733 559.6901176197 24.2636714315 0.9960542139 560.2166952497
4.2092848271 24.1710490733 559.0563338869 24.3395118699 0.6153510067 559.5862533640
3.7096560150 24.1710490733 558.3502834574 24.4267297206 0.1578373122 558.8843610931
3.2100272030 24.1710490733 557.5548554915 24.6094072460 -0.5608168554 558.0979791422
2.7103983909 24.1710490733 556.8055176773 24.8898049651 -1.4422199080 557.3634065000
2.2107695788 24.1710490733 556.0925897161 25.1558047935 -2.3959768971 556.6664383248
1.7111407667 24.1710490733 555.2857866115 25.3695962812 -3.3114155088 555.8748840349
1.2115119547 24.1710490733 554.5125329226 25.4866317545 -3.8635540894 555.1113803703
0.7118831426 24.1710490733 554.0240569016 25.4428735722 -3.8529959707 554.6213492278
0.2122543305 24.1710490733 554.0040970781 25.2752423762 -3.0673081627 554.5888439519
-0.2873744816 24.1710490733 554.3632045174 24.9032890855 -1.4789865491 554.9242504444
-0.7870032936 24.1710490733 554.9559223348 24.5285957696 0.5400259045 555.4979922312
-1.2866321057 24.1710490733 555.5325590725 24.1942164071 2.3771288486 556.0642364321
-1.7862609178 24.1710490733 555.9147814224 24.0223331981 3.6617310523 556.4456172624
-2.2858897299 24.1710490733 556.1202095390 24.0668354205 4.3411579029 556.6576557246
-2.7855185419 24.1710490733 556.2091304950 24.2063493151 4.4179588332 556.7531432811
-3.2851473540 24.1710490733 556.2083040128 24.4069570033 4.0927691338 556.7585902006
-3.7847761661 24.1710490733 556.3092523830 24.6954425744 3.7866896638 556.8699921790
-4.2844049782 24.1710490733 556.3634104998 25.0150831603 3.6195838519 556.9372498906
-4.7840337902 24.1710490733 556.4348712700 25.2907667180 3.6263318442 557.0211298767