# Tymkiw, N. J., “Measurements in a Compresssible Planar Shear Layer with a Thermal Gradient", M.S. Thesis, 2020.
# This work was funded by the NASA Aeronautics Mission Directorate's Transformative Aeronautics Concepts Program, Transformational Tools and Technologies Project; Grant Number NNX15AU94A.
VARIABLES = "x (mm)", "y (mm)", "T0 (K)", "(y-y0)/b", "(T0-T02)/(T01-T02)", "(y-Y0)/B", "(T-T1)/(T2-T1)"
ZONE T="Frame 0", I=1, J=151, F=POINT
125.8000000000 -25.0000490000 487.8589120788 -2.6951560991 0.9637508227 -2.1360391893 NaN
125.8000000000 -24.4999870000 488.1958266750 -2.6453575590 0.9654610491 -2.1006014457 NaN
125.8000000000 -24.0000230000 488.3065931577 -2.5955687782 0.9660233155 -2.0651706470 NaN
125.8000000000 -23.4999610000 488.3866452869 -2.5457702381 0.9664296715 -2.0297329034 NaN
125.8000000000 -22.9999980000 488.5633312914 -2.4959815569 0.9673265548 -1.9943021756 NaN
125.8000000000 -22.5000340000 488.5056347867 -2.4461927761 0.9670336791 -1.9588713769 NaN
125.8000000000 -21.9999720000 488.0084243071 -2.3963942360 0.9645097681 -1.9234336333 NaN
125.8000000000 -21.5000090000 488.7218361688 -2.3466055548 0.9681311481 -1.8880029055 NaN
125.8000000000 -21.0000450000 487.9451017455 -2.2968167741 0.9641883337 -1.8525721069 NaN
125.8000000000 -20.4999830000 488.3358442228 -2.2470182340 0.9661717981 -1.8171343633 NaN
125.8000000000 -20.0000200000 487.6398606826 -2.1972295528 0.9626388867 -1.7817036355 NaN
125.8000000000 -19.4999570000 487.7351811354 -2.1474309131 0.9631227469 -1.7462658210 NaN
125.8000000000 -18.9999940000 487.3583221143 -2.0976422319 0.9612097569 -1.7108350932 NaN
125.8000000000 -18.5000300000 486.8361566670 -2.0478534511 0.9585591709 -1.6754042945 NaN
125.8000000000 -17.9999680000 486.4072940763 -1.9980549110 0.9563822034 -1.6399665509 0.9721105057
125.8000000000 -17.5000050000 486.4089122656 -1.9482662298 0.9563904176 -1.6045358231 0.9721817835
125.8000000000 -17.0000410000 486.7502819231 -1.8984774490 0.9581232585 -1.5691050244 0.9733412154
125.8000000000 -16.4999790000 486.3848904056 -1.8486789089 0.9562684792 -1.5336672808 0.9722289110
125.8000000000 -16.0000160000 486.2608801521 -1.7988902278 0.9556389855 -1.4982365530 0.9719134583
125.8000000000 -15.4999530000 485.7108677818 -1.7490915881 0.9528470446 -1.4627987386 0.9702283462
125.8000000000 -14.9999900000 485.6246271602 -1.6993029069 0.9524092749 -1.4273680108 0.9699836514
125.8000000000 -14.5000270000 485.1550210233 -1.6495142257 0.9500254874 -1.3919372830 0.9685486330
125.8000000000 -13.9999640000 485.3384163347 -1.5997155860 0.9509564281 -1.3564994685 0.9692198181
125.8000000000 -13.5000010000 485.6591814197 -1.5499269048 0.9525846773 -1.3210687407 0.9703514232
125.8000000000 -13.0000380000 485.4593480041 -1.5001382236 0.9515702944 -1.2856380129 0.9697797673
125.8000000000 -12.4999750000 485.5548298928 -1.4503395839 0.9520549741 -1.2502001984 0.9702132289
125.8000000000 -12.0000120000 484.7241559735 -1.4005509027 0.9478383552 -1.2147694706 0.9676095692
125.8000000000 -11.5000480000 485.1029831567 -1.3507621220 0.9497613358 -1.1793386720 0.9689873485
125.8000000000 -10.9999860000 484.5207626252 -1.3009635819 0.9468059017 -1.1439009284 0.9671504841
125.8000000000 -10.5000230000 484.4590271245 -1.2511749007 0.9464925235 -1.1084702006 0.9671037971
125.8000000000 -9.9999600000 485.0204615865 -1.2013762610 0.9493424446 -1.0730323861 0.9686171911
125.8000000000 -9.7500280000 486.1900960730 -1.1764868498 0.9552796755 -1.0553205301 0.9718669960
125.8000000000 -9.4999970000 484.7195088518 -1.1515875798 0.9478147657 -1.0376016583 0.9674978381
125.8000000000 -9.2499660000 485.0444841584 -1.1266883097 0.9494643866 -1.0198827865 0.9682084667
125.8000000000 -9.0000340000 483.9818012089 -1.1017988986 0.9440700569 -1.0021709305 0.9653068333
125.8000000000 -8.7500020000 484.4828303240 -1.0768995290 0.9466133519 -0.9844519878 0.9664971231
125.8000000000 -8.4999710000 484.1338369434 -1.0520002589 0.9448418119 -0.9667331160 0.9658350280
125.8000000000 -8.2500390000 485.0398468082 -1.0271108478 0.9494408467 -0.9490212600 0.9684779333
125.8000000000 -8.0000080000 483.4249759829 -1.0022115777 0.9412435329 -0.9313023882 0.9636414063
125.8000000000 -7.7499770000 484.4259331080 -0.9773123077 0.9463245335 -0.9135835164 0.9665898937
125.8000000000 -7.5000450000 483.1937997055 -0.9524228965 0.9400700493 -0.8958716604 0.9630068114
125.8000000000 -7.2500130000 483.8588849236 -0.9275235269 0.9434461164 -0.8781527177 0.9648414906
125.8000000000 -6.9999820000 482.5165148328 -0.9026242568 0.9366320550 -0.8604338459 0.9609963755
125.8000000000 -6.7499510000 483.0182594036 -0.8777249868 0.9391789817 -0.8427149741 0.9622889693
125.8000000000 -6.5000190000 482.4807748904 -0.8528355756 0.9364506340 -0.8250031181 0.9609591402
125.8000000000 -6.2499880000 483.5066687816 -0.8279363056 0.9416582172 -0.8072842463 0.9640129399
125.8000000000 -5.9999560000 482.1932261285 -0.8030369360 0.9349909956 -0.7895653037 0.9602793468
125.8000000000 -5.7500240000 482.7053200128 -0.7781475248 0.9375904569 -0.7718534477 0.9615388616
125.8000000000 -5.4999930000 481.7215940338 -0.7532482548 0.9325969240 -0.7541345759 0.9587442334
125.8000000000 -5.2499620000 481.6766807908 -0.7283489847 0.9323689380 -0.7364157041 0.9583489283
125.8000000000 -5.0000300000 480.7959081171 -0.7034595736 0.9278980107 -0.7187038481 0.9559964191
125.8000000000 -4.7499980000 481.5575270556 -0.6785602039 0.9317640967 -0.7009849054 0.9581882968
125.8000000000 -4.4999670000 480.2855315588 -0.6536609339 0.9253072668 -0.6832660336 0.9544718851
125.8000000000 -4.2500350000 480.3787488473 -0.6287715228 0.9257804510 -0.6655541776 0.9545597348
125.8000000000 -4.0000040000 479.0534363383 -0.6038722527 0.9190529763 -0.6478353058 0.9506945395
125.8000000000 -3.7499730000 478.3879357870 -0.5789729827 0.9156748009 -0.6301164340 0.9483711783
125.8000000000 -3.5000410000 478.0758438778 -0.5540835715 0.9140905781 -0.6124045780 0.9477055923
125.8000000000 -3.2500090000 477.4449335244 -0.5291842019 0.9108879874 -0.5946856353 0.9455154732
125.8000000000 -2.9999780000 475.6823257127 -0.5042849318 0.9019407397 -0.5769667635 0.9402500765
125.8000000000 -2.7500460000 473.4625577950 -0.4793955207 0.8906728822 -0.5592549075 0.9328951356
125.8000000000 -2.5000150000 471.5150437046 -0.4544962506 0.8807870239 -0.5415360357 0.9271050948
125.8000000000 -2.2499840000 465.7117363630 -0.4295969806 0.8513286110 -0.5238171639 0.9083414175
125.8000000000 -1.9999520000 466.3861748627 -0.4046976110 0.8547521567 -0.5060982212 0.9111571923
125.8000000000 -1.7500200000 456.3718675170 -0.3798081998 0.8039181092 -0.4883863652 0.8785795377
125.8000000000 -1.4999890000 459.5322306894 -0.3549089298 0.8199605619 -0.4706674934 0.8898145874
125.8000000000 -1.2499580000 450.2569301941 -0.3300096597 0.7728778182 -0.4529486216 0.8593269273
125.8000000000 -1.0000260000 452.6722624175 -0.3051202486 0.7851383879 -0.4352367656 0.8680247590
125.8000000000 -0.7499950000 438.4632647199 -0.2802209785 0.7130114960 -0.4175178938 0.8219866647
125.8000000000 -0.4999630000 440.5714341290 -0.2553216089 0.7237128636 -0.3997989512 0.8297783597
125.8000000000 -0.2500310000 427.4426860733 -0.2304321977 0.6570694725 -0.3820870952 0.7866821103
125.8000000000 0.0000000000 430.7467449671 -0.2055329277 0.6738413450 -0.3643682234 0.7984988754
125.8000000000 0.2500310000 414.5319199096 -0.1806336576 0.5915325884 -0.3466493516 0.7462416157
125.8000000000 0.4999630000 416.4983468419 -0.1557442465 0.6015144510 -0.3289374956 0.7528188829
125.8000000000 0.7499950000 403.5397818575 -0.1308448769 0.5357349333 -0.3112185529 0.7109392503
125.8000000000 1.0000260000 405.2531972836 -0.1059456068 0.5444324735 -0.2934996811 0.7166678737
125.8000000000 1.2499580000 391.0998808426 -0.0810561957 0.4725882276 -0.2757878251 0.6706771085
125.8000000000 1.4999890000 393.5467166681 -0.0561569256 0.4850087141 -0.2580689533 0.6784510852
125.8000000000 1.7500200000 383.7474025178 -0.0312576556 0.4352660026 -0.2403500815 0.6460898764
125.8000000000 1.9999520000 384.3584239781 -0.0063682444 0.4383676344 -0.2226382255 0.6484066286
125.8000000000 2.2499840000 370.0546435354 0.0185311252 0.3657596119 -0.2049192828 0.6021119334
125.8000000000 2.5000150000 374.0229581261 0.0434303953 0.3859033407 -0.1872004110 0.6133919695
125.8000000000 2.7500460000 361.0248970015 0.0683296653 0.3199233350 -0.1694815392 0.5709267770
125.8000000000 2.9999780000 366.1007439179 0.0932190765 0.3456890554 -0.1517696832 0.5837028025
125.8000000000 3.2500090000 352.1061113589 0.1181183465 0.2746503115 -0.1340508114 0.5373260001
125.8000000000 3.5000410000 357.3855398241 0.1430177161 0.3014494407 -0.1163318688 0.5518856300
125.8000000000 3.7499730000 342.8518010870 0.1679071273 0.2276741172 -0.0986200128 0.5039836654
125.8000000000 4.0000040000 350.5220212863 0.1928063973 0.2666092451 -0.0809011410 0.5251519084
125.8000000000 4.2500350000 339.1425585617 0.2177056674 0.2088454749 -0.0631822692 0.4875531830
125.8000000000 4.4999670000 343.4793640957 0.2425950785 0.2308597162 -0.0454704132 0.4967744650
125.8000000000 4.7499980000 334.6204348336 0.2674943486 0.1858905322 -0.0277515414 0.4667247588
125.8000000000 5.0000300000 337.8373295678 0.2923937182 0.2022199470 -0.0100325987 0.4724532397
125.8000000000 5.2499620000 329.5560727104 0.3172831294 0.1601831102 0.0076792573 0.4438239893
125.8000000000 5.4999930000 333.3024970178 0.3421823994 0.1792004925 0.0253981291 0.4501185735
125.8000000000 5.7500240000 326.0127064074 0.3670816694 0.1421964792 0.0431170009 0.4252191246
125.8000000000 5.9999560000 326.6287451318 0.3919710806 0.1453235793 0.0608288569 0.4204337926
125.8000000000 6.2499870000 321.5009447579 0.4168703506 0.1192941358 0.0785477287 0.3952644354
125.8000000000 6.5000190000 322.8614261716 0.4417697203 0.1262001329 0.0962666714 0.3920804425
125.8000000000 6.7499510000 317.8085289513 0.4666591314 0.1005509084 0.1139785274 0.3724103198
125.8000000000 6.9999820000 318.8893627990 0.4915584015 0.1060373746 0.1316973992 0.3672037823
125.8000000000 7.2500130000 315.3830273607 0.5164576715 0.0882387176 0.1494162710 0.3511940877
125.8000000000 7.5000450000 316.1387730808 0.5413570411 0.0920749903 0.1671352137 0.3452942210
125.8000000000 7.7499770000 311.2755153393 0.5662464523 0.0673884027 0.1848470697 0.3253781943
125.8000000000 8.0000080000 312.0956418776 0.5911457223 0.0715514816 0.2025659415 0.3182878234
125.8000000000 8.2500390000 308.1795440828 0.6160449924 0.0516728126 0.2202848133 0.3003341789
125.8000000000 8.4999710000 309.9585461542 0.6409344035 0.0607032800 0.2379966693 0.2960175639
125.8000000000 8.7500020000 306.3050769126 0.6658336736 0.0421577508 0.2557155411 0.2777796601
125.8000000000 9.0000340000 306.0288917014 0.6907330432 0.0407557954 0.2734344837 0.2670273107
125.8000000000 9.2499660000 304.4889070850 0.7156224544 0.0329386146 0.2911463397 0.2558004919
125.8000000000 9.4999970000 303.9198620403 0.7405217244 0.0300500611 0.3088652115 0.2425108066
125.8000000000 9.7500280000 302.7945443761 0.7654209945 0.0243377887 0.3265840833 0.2210176423
125.8000000000 9.9999600000 301.8501437843 0.7903104056 0.0195438771 0.3442959393 0.2052403024
125.8000000000 10.2499910000 301.4245801305 0.8152096757 0.0173836555 0.3620148111 0.1948462862
125.8000000000 10.5000230000 301.6375884133 0.8401090453 0.0184649158 0.3797337538 0.1838075206
125.8000000000 10.7499550000 300.6661258831 0.8649984564 0.0135336339 0.3974456098 0.1726472255
125.8000000000 10.9999860000 299.9052936029 0.8898977265 0.0096715411 0.4151644816 0.1579386550
125.8000000000 11.2500170000 299.3847127079 0.9147969965 0.0070289985 0.4328833534 0.1474168661
125.8000000000 11.5000480000 299.9507089215 0.9396962666 0.0099020757 0.4506022252 0.1368330457
125.8000000000 11.7499800000 300.1098605878 0.9645856777 0.0107099522 0.4683140812 0.1280188312
125.8000000000 12.0000120000 298.4360817610 0.9894850474 0.0022136130 0.4860330239 0.1112917814
125.8000000000 12.2500430000 298.3771107814 1.0143843174 0.0019142679 0.5037518957 0.1019634760
125.8000000000 12.4999750000 297.7265010264 1.0392737286 -0.0013883197 0.5214637517 0.0888647238
125.8000000000 12.7500060000 297.8138064023 1.0641729986 -0.0009451452 0.5391826235 0.0805383007
125.8000000000 13.0000370000 297.5256503179 1.0890722686 -0.0024078664 0.5569014953 0.0603910050
125.8000000000 13.2499700000 297.9848858918 1.1139617794 -0.0000767214 0.5746134222 0.0540669962
125.8000000000 13.5000010000 297.4152904160 1.1388610494 -0.0029680690 0.5923322940 0.0436010057
125.8000000000 13.7500320000 297.7307560488 1.1637603195 -0.0013667206 0.6100511658 0.0376193516
125.8000000000 13.9999640000 297.2833347477 1.1886497306 -0.0036378947 0.6277630218 0.0293321305
125.8000000000 14.2499950000 297.9060981917 1.2135490007 -0.0004766589 0.6454818936 0.0262531645
125.8000000000 14.5000270000 297.3521143756 1.2384483703 -0.0032887595 0.6632008362 0.0193535013
125.8000000000 14.7499590000 298.2531355228 1.2633377815 0.0012849519 0.6809126922 0.0180400731
125.8000000000 14.9999900000 297.9507447271 1.2882370515 -0.0002500268 0.6986315640 0.0130283121
125.8000000000 15.4999530000 297.6431255640 1.3380257327 -0.0018115454 0.7340622918 0.0061864339
125.8000000000 16.0000160000 298.3755695063 1.3878243724 0.0019064442 0.7695001063 0.0036249509
125.8000000000 16.4999790000 297.6760504454 1.4376130536 -0.0016444140 0.8049308341 -0.0020931224
125.8000000000 17.0000410000 297.6735003760 1.4874115937 -0.0016573585 0.8403685777 -0.0031036787
125.8000000000 17.5000050000 297.7555603887 1.5372003744 -0.0012408102 0.8757993764 -0.0035196791
125.8000000000 17.9999680000 297.6422706641 1.5869890556 -0.0018158850 0.9112301042 -0.0040156260
125.8000000000 18.5000300000 297.8466439482 1.6367875957 -0.0007784571 0.9466678478 -0.0034805836
125.8000000000 18.9999940000 297.6566493397 1.6865763765 -0.0017428968 0.9820986464 -0.0039789097
125.8000000000 19.4999570000 297.6741066687 1.7363650577 -0.0016542809 1.0175293742 -0.0039436467
125.8000000000 20.0000200000 297.7345585532 1.7861636974 -0.0013474185 1.0529671887 -0.0039255942
125.8000000000 20.4999830000 297.6140550459 1.8359523786 -0.0019591114 1.0883979165 -0.0041948181
125.8000000000 21.0000450000 297.7478471873 1.8857509187 -0.0012799635 1.1238356601 -0.0035823579
125.8000000000 21.5000090000 297.8190192930 1.9355396995 -0.0009186838 1.1592664588 -0.0035342969
125.8000000000 21.9999720000 297.5405894512 1.9853283807 -0.0023320332 1.1946971866 -0.0042372419
125.8000000000 22.5000340000 297.5775516334 2.0351269207 -0.0021444080 1.2301349302 -0.0038945491
125.8000000000 22.9999980000 297.6672304050 2.0849157015 -0.0016891858 1.2655657289 -0.0034511744
125.8000000000 23.4999610000 297.4299161838 2.1347043827 -0.0028938265 1.3009964567 -0.0037928171
125.8000000000 24.0000230000 297.5910999012 2.1845029228 -0.0020756350 1.3364342003 -0.0028374294
125.8000000000 24.4999870000 297.7288560646 2.2342917036 -0.0013763652 1.3718649989 -0.0021239273
125.8000000000 25.0000490000 297.3904874245 2.2840902437 -0.0030939725 1.4073027425 -0.0026952377
