# Tymkiw, N. J., “Measurements in a Compresssible Planar Shear Layer with a Thermal Gradient", M.S. Thesis, 2020.
# This work was funded by the NASA Aeronautics Mission Directorate's Transformative Aeronautics Concepts Program, Transformational Tools and Technologies Project; Grant Number NNX15AU94A.
VARIABLES = "x (mm)", "y (mm)", "T0 (K)", "(y-y0)/b", "(T0-T02)/(T01-T02)"
ZONE T="Frame 0", I=1, J=216, F=POINT
284.0000000000 -44.9999700000 492.9650342274 -1.4277737149 0.9896702245
284.0000000000 -44.5000060000 491.9145397546 -1.4084278832 0.9843377653
284.0000000000 -44.0000430000 492.7101265358 -1.3890820903 0.9883762768
284.0000000000 -43.4999800000 491.8388116842 -1.3697324279 0.9839533588
284.0000000000 -43.0000170000 491.8804327256 -1.3503866349 0.9841646331
284.0000000000 -42.4999550000 492.0036007267 -1.3310370112 0.9847898514
284.0000000000 -41.9999910000 492.0347156868 -1.3116911796 0.9849477954
284.0000000000 -41.5000280000 491.6231481814 -1.2923453867 0.9828586202
284.0000000000 -40.9999660000 491.5324237927 -1.2729957630 0.9823980903
284.0000000000 -40.5000020000 492.2415563985 -1.2536499313 0.9859977482
284.0000000000 -40.0000390000 491.7885912536 -1.2343041384 0.9836984328
284.0000000000 -39.4999770000 491.0526596832 -1.2149545147 0.9799627395
284.0000000000 -39.0000130000 490.7882275120 -1.1956086830 0.9786204442
284.0000000000 -38.4999510000 491.0468823025 -1.1762590593 0.9799334127
284.0000000000 -37.9999880000 490.7482855887 -1.1569132664 0.9784176933
284.0000000000 -37.5000240000 490.7154693917 -1.1375674348 0.9782511137
284.0000000000 -36.9999620000 491.1890317636 -1.1182178111 0.9806549836
284.0000000000 -36.4999980000 491.0286806991 -1.0988719794 0.9798410188
284.0000000000 -36.0000350000 490.7958607469 -1.0795261865 0.9786591916
284.0000000000 -35.4999730000 490.4548076358 -1.0601765628 0.9769279575
284.0000000000 -35.0000090000 490.8540709973 -1.0408307311 0.9789546751
284.0000000000 -34.5000460000 490.7454254654 -1.0214849382 0.9784031750
284.0000000000 -33.9999840000 489.8857075724 -1.0021353145 0.9740391247
284.0000000000 -33.5000200000 489.5031204019 -0.9827894828 0.9720970579
284.0000000000 -32.9999580000 489.3343473132 -0.9634398592 0.9712403417
284.0000000000 -32.4999950000 490.3189977145 -0.9440940662 0.9762385671
284.0000000000 -32.0000310000 489.9077889074 -0.9247482346 0.9741512127
284.0000000000 -31.4999690000 490.0576917590 -0.9053986109 0.9749121409
284.0000000000 -31.0000050000 489.8074127329 -0.8860527792 0.9736416890
284.0000000000 -30.5000420000 489.9911467542 -0.8667069863 0.9745743490
284.0000000000 -29.9999800000 489.9372661549 -0.8473573626 0.9743008434
284.0000000000 -29.5000160000 488.7136948816 -0.8280115309 0.9680898217
284.0000000000 -28.9999540000 488.8337376669 -0.8086619072 0.9686991760
284.0000000000 -28.4999910000 489.0580893162 -0.7893161143 0.9698380168
284.0000000000 -28.0000270000 488.8237701243 -0.7699702827 0.9686485793
284.0000000000 -27.4999650000 489.1473171143 -0.7506206590 0.9702909498
284.0000000000 -27.0000020000 488.2056064486 -0.7312748660 0.9655106926
284.0000000000 -26.5000380000 487.3102035378 -0.7119290344 0.9609655002
284.0000000000 -25.9999760000 487.1364499420 -0.6925794107 0.9600835022
284.0000000000 -25.5000130000 487.1901908644 -0.6732336177 0.9603562988
284.0000000000 -25.0000490000 486.0377823498 -0.6538877861 0.9545065094
284.0000000000 -24.7500180000 486.8058785589 -0.6442129742 0.9584054749
284.0000000000 -24.4999870000 485.8228861516 -0.6345381624 0.9534156657
284.0000000000 -24.2499550000 486.0909188899 -0.6248633119 0.9547762380
284.0000000000 -24.0000230000 485.1005881590 -0.6151923308 0.9497491785
284.0000000000 -23.7499920000 484.5843122937 -0.6055175189 0.9471284888
284.0000000000 -23.4999610000 483.6077825504 -0.5958427071 0.9421714850
284.0000000000 -23.2500290000 483.4990695649 -0.5861717260 0.9416196425
284.0000000000 -22.9999980000 482.3691833734 -0.5764969141 0.9358841796
284.0000000000 -22.7499660000 482.0656531065 -0.5668220636 0.9343434168
284.0000000000 -22.5000340000 480.4935172596 -0.5571510825 0.9263630318
284.0000000000 -22.2500030000 480.2448230822 -0.5474762706 0.9251006248
284.0000000000 -21.9999720000 479.0798145049 -0.5378014588 0.9191868757
284.0000000000 -21.7500400000 478.6516420995 -0.5281304777 0.9170134117
284.0000000000 -21.5000090000 476.4290372170 -0.5184556658 0.9057311534
284.0000000000 -21.2499770000 476.8711950211 -0.5087808153 0.9079756092
284.0000000000 -21.0000450000 475.1408087930 -0.4991098342 0.8991919228
284.0000000000 -20.7500140000 473.3414580194 -0.4894350223 0.8900581625
284.0000000000 -20.4999830000 471.4679600807 -0.4797602105 0.8805480207
284.0000000000 -20.2499520000 471.0579953517 -0.4700853986 0.8784669815
284.0000000000 -20.0000200000 469.4614010726 -0.4604144176 0.8703624420
284.0000000000 -19.7499880000 468.4603518000 -0.4507395670 0.8652809736
284.0000000000 -19.4999570000 465.2613437129 -0.4410647552 0.8490423539
284.0000000000 -19.2500250000 464.7683754272 -0.4313937741 0.8465399768
284.0000000000 -18.9999940000 463.0974987680 -0.4217189622 0.8380583694
284.0000000000 -18.7499630000 461.7633853265 -0.4120441504 0.8312862199
284.0000000000 -18.5000300000 457.6473495140 -0.4023731306 0.8103926371
284.0000000000 -18.2499990000 457.3108741847 -0.3926983187 0.8086846405
284.0000000000 -17.9999680000 456.2848478777 -0.3830235069 0.8034763852
284.0000000000 -17.7500360000 452.2377099112 -0.3733525258 0.7829325376
284.0000000000 -17.5000050000 450.0200408350 -0.3636777139 0.7716753342
284.0000000000 -17.2499730000 449.0113323441 -0.3540028634 0.7665549865
284.0000000000 -17.0000410000 447.7407396060 -0.3443318823 0.7601052772
284.0000000000 -16.7500100000 445.4915469747 -0.3346570704 0.7486880557
284.0000000000 -16.4999790000 441.6775435114 -0.3249822586 0.7293276320
284.0000000000 -16.2500470000 441.4205803954 -0.3153112775 0.7280232507
284.0000000000 -16.0000160000 439.4733461655 -0.3056364656 0.7181388130
284.0000000000 -15.7499840000 435.7792054866 -0.2959616151 0.6993868299
284.0000000000 -15.4999530000 433.0007322081 -0.2862868033 0.6852829046
284.0000000000 -15.2500210000 432.0459649305 -0.2766158222 0.6804363702
284.0000000000 -14.9999900000 431.9521546087 -0.2669410103 0.6799601757
284.0000000000 -14.7499590000 429.6572789133 -0.2572661985 0.6683110605
284.0000000000 -14.5254270000 421.8052812193 -0.2485780564 0.6284532042
284.0000000000 -14.5000270000 425.1186213756 -0.2475952174 0.6452721897
284.0000000000 -14.2499950000 423.1616193863 -0.2379203668 0.6353381695
284.0000000000 -13.9999640000 420.4498057836 -0.2282455550 0.6215726182
284.0000000000 -13.7500320000 416.5936971266 -0.2185745739 0.6019984626
284.0000000000 -13.5000010000 415.6157886660 -0.2088997620 0.5970344602
284.0000000000 -13.2499700000 413.6133977977 -0.1992249502 0.5868700396
284.0000000000 -13.0000380000 412.3777619075 -0.1895539691 0.5805977762
284.0000000000 -12.7500060000 409.1747287104 -0.1798791185 0.5643387244
284.0000000000 -12.4999750000 406.9701851112 -0.1702043067 0.5531481478
284.0000000000 -12.2500430000 404.6599631172 -0.1605333256 0.5414211326
284.0000000000 -12.0000120000 403.3300901125 -0.1508585137 0.5346705082
284.0000000000 -11.7499800000 400.1660738379 -0.1411836632 0.5186095119
284.0000000000 -11.5000480000 399.0122115887 -0.1315126821 0.5127523431
284.0000000000 -11.2500170000 396.4925131738 -0.1218378703 0.4999619958
284.0000000000 -10.9999860000 395.1069501058 -0.1121630584 0.4929286807
284.0000000000 -10.7499550000 392.6823165334 -0.1024882466 0.4806208961
284.0000000000 -10.5000230000 390.7442806027 -0.0928172655 0.4707831503
284.0000000000 -10.2499910000 388.6825854544 -0.0831424149 0.4603176927
284.0000000000 -9.9999600000 387.2737698733 -0.0734676031 0.4531663445
284.0000000000 -9.7500280000 385.4108835443 -0.0637966220 0.4437100688
284.0000000000 -9.4999970000 383.2401582183 -0.0541218101 0.4326911585
284.0000000000 -9.2499660000 382.6113833310 -0.0444469983 0.4294994078
284.0000000000 -9.0254340000 377.6540782818 -0.0357588562 0.4043354228
284.0000000000 -9.0000340000 380.5912914592 -0.0347760172 0.4192451343
284.0000000000 -8.7500020000 378.5985549879 -0.0251011666 0.4091297208
284.0000000000 -8.4999710000 376.3955681819 -0.0154263548 0.3979470466
284.0000000000 -8.2500390000 375.5386822032 -0.0057553737 0.3935973716
284.0000000000 -8.0000080000 373.4337845370 0.0039194382 0.3829126119
284.0000000000 -7.7499770000 372.0069310942 0.0135942500 0.3756697010
284.0000000000 -7.5000450000 369.0385717204 0.0232652311 0.3606018869
284.0000000000 -7.2500130000 367.1739220760 0.0329400816 0.3511366603
284.0000000000 -6.9999820000 366.2843184691 0.0426148935 0.3466209059
284.0000000000 -6.7499510000 364.7316107788 0.0522897053 0.3387391410
284.0000000000 -6.5000190000 362.5024580432 0.0619606864 0.3274236449
284.0000000000 -6.2499880000 361.7616870907 0.0716354983 0.3236633862
284.0000000000 -5.9999560000 360.2845727159 0.0813103488 0.3161653437
284.0000000000 -5.7500240000 357.8744881332 0.0909813299 0.3039314118
284.0000000000 -5.4999930000 357.5721334210 0.1006561418 0.3023966164
284.0000000000 -5.2499620000 355.2691002693 0.1103309536 0.2907060927
284.0000000000 -5.0000300000 355.7888732411 0.1200019347 0.2933445342
284.0000000000 -4.7499980000 352.5321881855 0.1296767853 0.2768131380
284.0000000000 -4.4999670000 351.1801587118 0.1393515971 0.2699500442
284.0000000000 -4.2500350000 350.0744749030 0.1490225782 0.2643374361
284.0000000000 -4.0000040000 349.1594734566 0.1586973901 0.2596927587
284.0000000000 -3.7499730000 347.6388884443 0.1683722019 0.2519740530
284.0000000000 -3.5000410000 346.0387583097 0.1780431830 0.2438515650
284.0000000000 -3.2500090000 345.2221863212 0.1877180335 0.2397065295
284.0000000000 -2.9999780000 344.0298300495 0.1973928454 0.2336539596
284.0000000000 -2.7500460000 342.9779672325 0.2070638265 0.2283145545
284.0000000000 -2.5000150000 341.6405698664 0.2167386383 0.2215257354
284.0000000000 -2.2499840000 340.3200969762 0.2264134502 0.2148228273
284.0000000000 -1.9999520000 339.4882284154 0.2360883007 0.2106001442
284.0000000000 -1.7500200000 337.9499334209 0.2457592818 0.2027915402
284.0000000000 -1.4999890000 336.9736829553 0.2554340937 0.1978359541
284.0000000000 -1.2499580000 335.1778203137 0.2651089055 0.1887199001
284.0000000000 -1.0000260000 334.7521585746 0.2747798866 0.1865591806
284.0000000000 -0.7499950000 333.7733062670 0.2844546985 0.1815903871
284.0000000000 -0.4999630000 332.1070520629 0.2941295490 0.1731322440
284.0000000000 -0.4745630000 333.3882656578 0.2951123880 0.1796358663
284.0000000000 -0.2500310000 332.8385400188 0.3038005301 0.1768453808
284.0000000000 -0.2246310000 331.7760498024 0.3047833691 0.1714520295
284.0000000000 0.0000000000 331.6465791201 0.3134753420 0.1707948179
284.0000000000 0.2500310000 331.1740936089 0.3231501538 0.1683964143
284.0000000000 0.4999630000 329.4180244082 0.3328211349 0.1594823574
284.0000000000 0.7499950000 329.0784238704 0.3424959855 0.1577584968
284.0000000000 1.0000260000 327.8085133995 0.3521707973 0.1513122508
284.0000000000 1.2499580000 326.7543122418 0.3618417784 0.1459609758
284.0000000000 1.4999890000 325.7195310590 0.3715165902 0.1407082795
284.0000000000 1.7500200000 324.8321076518 0.3811914021 0.1362035921
284.0000000000 1.9999520000 325.2055218802 0.3908623832 0.1380990958
284.0000000000 2.2499840000 324.1063087374 0.4005372337 0.1325193337
284.0000000000 2.5000150000 322.8238714004 0.4102120456 0.1260094995
284.0000000000 2.7500460000 322.6863909494 0.4198868574 0.1253116292
284.0000000000 2.9999780000 321.8359462492 0.4295578385 0.1209946510
284.0000000000 3.2500090000 321.7122796854 0.4392326504 0.1203669020
284.0000000000 3.5000410000 320.8781057804 0.4489075009 0.1161325167
284.0000000000 3.7499730000 319.8678701843 0.4585784820 0.1110044172
284.0000000000 4.0000040000 319.5362341202 0.4682532939 0.1093209854
284.0000000000 4.2500350000 319.7077102655 0.4779281057 0.1101914227
284.0000000000 4.4999670000 318.2908235656 0.4875990868 0.1029991044
284.0000000000 4.7499980000 317.9167307382 0.4972738987 0.1011001560
284.0000000000 5.0000300000 317.1479494609 0.5069487492 0.0971977130
284.0000000000 5.2499620000 317.8013084017 0.5166197303 0.1005142558
284.0000000000 5.2753620000 316.7317040015 0.5176025693 0.0950847919
284.0000000000 5.4999930000 316.1867727896 0.5262945421 0.0923186436
284.0000000000 5.7500240000 316.1903057212 0.5359693540 0.0923365773
284.0000000000 5.9999560000 314.8775472101 0.5456403351 0.0856728285
284.0000000000 6.2499870000 315.3753660852 0.5553151469 0.0881998278
284.0000000000 6.5000190000 313.9922859680 0.5649899975 0.0811791166
284.0000000000 6.7499510000 313.7830435343 0.5746609786 0.0801169723
284.0000000000 6.9999820000 312.8780666736 0.5843357904 0.0755231811
284.0000000000 7.2500130000 313.3515551392 0.5940106023 0.0779266758
284.0000000000 7.5000450000 312.4366863017 0.6036854528 0.0732826716
284.0000000000 7.7499770000 312.1305061575 0.6133564339 0.0717284577
284.0000000000 8.0000080000 311.0474776083 0.6230312458 0.0662308508
284.0000000000 8.2500390000 311.0018580506 0.6327060576 0.0659992794
284.0000000000 8.4999710000 310.4388979975 0.6423770387 0.0631416142
284.0000000000 8.7500020000 309.9851113329 0.6520518506 0.0608381286
284.0000000000 9.0000340000 309.0461581045 0.6617267011 0.0560718686
284.0000000000 9.2499660000 309.5579670295 0.6713976822 0.0586698834
284.0000000000 9.4999970000 308.7769182187 0.6810724941 0.0547051686
284.0000000000 9.7500280000 307.8077764535 0.6907473059 0.0497856673
284.0000000000 9.9999600000 307.8431106846 0.7004182870 0.0499650289
284.0000000000 10.5000230000 306.8629909159 0.7197679494 0.0449898016
284.0000000000 10.9999860000 306.6886304052 0.7391137423 0.0441047229
284.0000000000 11.5000480000 305.7712287888 0.7584633660 0.0394478619
284.0000000000 12.0000120000 305.0658025882 0.7778091977 0.0358670182
284.0000000000 12.4999750000 304.3945047244 0.7971549906 0.0324594148
284.0000000000 13.0000370000 303.8619999730 0.8165046143 0.0297563450
284.0000000000 13.5000010000 303.0852103084 0.8358504460 0.0258132503
284.0000000000 13.9999640000 302.4424425445 0.8551962389 0.0225504698
284.0000000000 14.5000270000 301.5999944657 0.8745459013 0.0182740836
284.0000000000 14.9999900000 301.1059864675 0.8938916942 0.0157664288
284.0000000000 15.4999530000 300.5032635746 0.9132374872 0.0127069217
284.0000000000 16.0000160000 299.7277455874 0.9325871496 0.0087702822
284.0000000000 16.4999790000 299.4496035771 0.9519329425 0.0073583938
284.0000000000 17.0000410000 299.0334936678 0.9712825662 0.0052461608
284.0000000000 17.5000050000 299.0393214534 0.9906283979 0.0052757434
284.0000000000 17.9999680000 298.4428275093 1.0099741908 0.0022478554
284.0000000000 18.5000300000 298.0924182383 1.0293238145 0.0004691281
284.0000000000 18.9999940000 297.7182566041 1.0486696461 -0.0014301695
284.0000000000 19.4999570000 297.5881856154 1.0680154391 -0.0020904283
284.0000000000 20.0000200000 297.6485182831 1.0873651015 -0.0017841712
284.0000000000 20.4999830000 297.0642427804 1.1067108944 -0.0047500366
284.0000000000 21.0000450000 297.4032402329 1.1260605181 -0.0030292374
284.0000000000 21.5000090000 297.0153085526 1.1454063498 -0.0049984337
284.0000000000 21.9999720000 296.7213400711 1.1647521427 -0.0064906595
284.0000000000 22.5000340000 297.0066221764 1.1841017664 -0.0050425270
284.0000000000 22.9999980000 296.9149344426 1.2034475980 -0.0055079470
284.0000000000 23.4999610000 296.4089601574 1.2227933910 -0.0080763444
284.0000000000 24.0000230000 296.7974123708 1.2421430147 -0.0061045057
284.0000000000 24.4999870000 296.4775695010 1.2614888463 -0.0077280736
284.0000000000 25.0000490000 296.6072916093 1.2808384700 -0.0070695857
