# Kim, K. U., Elliott, G. S., and Dutton, J. C., “A Three-Dimensional Experimental Study of Compressibility Effects on Turbulent Free Shear Layers,” AIAA Aviation Conference, Atlanta, GA, 2018.
# This work was funded by the NASA Aeronautics Mission Directorate's Transformative Aeronautics Concepts Program, Transformational Tools and Technologies Project; Grant Number NNX15AU94A.
VARIABLES = "z (mm)", "y (mm)", "U (m/s)", "V (m/s)", "W (m/s)", "|V| (m/s)"
ZONE T="Frame 0", I=173, J=151, F=POINT
8.6874207444 25.1825682931 503.0733895317 11.1050876482 0.1922159839 503.1959808798
8.3584743403 25.1825682931 502.7992062651 10.6820133721 0.0956025759 502.9126727081
8.0295279361 25.1825682931 502.3165768772 10.3029477180 0.3040483112 502.4223189536
7.7005815320 25.1825682931 501.7775797805 9.9690140391 0.6636390142 501.8770379565
7.3716351278 25.1825682931 501.2800148904 9.6694359814 1.1313792713 501.3745419741
7.0426887237 25.1825682931 500.8431939883 9.3772014740 1.6050834386 500.9335416647
6.7137423195 25.1825682931 500.4656554857 9.0860522890 1.9925838986 500.5520942494
6.3847959153 25.1825682931 500.1614161674 8.8086406505 2.3828687356 500.2446525812
6.0558495112 25.1825682931 499.8677384690 8.5860175776 2.8509619160 499.9496011037
5.7269031070 25.1825682931 499.5029003764 8.3985724290 3.3838554636 499.5849617244
5.3979567029 25.1825682931 499.0371058926 8.2315560434 3.9973195447 499.1209974907
5.0690102987 25.1825682931 498.5207740216 8.0953007277 4.7135019545 498.6087776260
4.7400638945 25.1825682931 498.0627171532 7.9954690000 5.4620999862 498.1568350216
4.4111174904 25.1825682931 497.7193514226 7.9191788504 6.0446376052 497.8190472632
4.0821710862 25.1825682931 497.4819283738 7.8349966743 6.3160831605 497.5837106839
3.7532246821 25.1825682931 497.3055235325 7.7026547793 6.2895465419 497.4049386791
3.4242782779 25.1825682931 497.1694754366 7.5559064007 6.0526462587 497.2637263608
3.0953318737 25.1825682931 497.0456375221 7.4173085975 5.7345451777 497.1340536062
2.7663854696 25.1825682931 496.8680661427 7.3344085205 5.3734853686 496.9512481579
2.4374390654 25.1825682931 496.5898680652 7.3230519056 4.8895706973 496.6679293611
2.1084926613 25.1825682931 496.2368227187 7.3514496889 4.3173383863 496.3100517270
1.7795462571 25.1825682931 495.8872192784 7.3795399414 3.6893465159 495.9558479655
1.4505998529 25.1825682931 495.6144119868 7.4123499471 2.9947528252 495.6788848087
1.1216534488 25.1825682931 495.4385309685 7.4637975602 2.2541418200 495.4998762842
0.7927070446 25.1825682931 495.2523451540 7.5504454326 1.5708372012 495.3123884341
0.4637606405 25.1825682931 494.9815592891 7.6542100661 0.9945172339 495.0417356471
0.1348142363 25.1825682931 494.6279576446 7.7630125187 0.5243551502 494.6891506748
-0.1941321678 25.1825682931 494.2434294901 7.8665150155 0.1548953809 494.3060526083
-0.5230785720 25.1825682931 493.8402292824 7.9609135746 -0.1588597040 493.9044173108
-0.8520249762 25.1825682931 493.4683712808 8.0716286287 -0.4296575695 493.5345674305
-1.1809713803 25.1825682931 493.1932377455 8.2108260538 -0.6158062591 493.2619655312
-1.5099177845 25.1825682931 493.0829179826 8.3843193077 -0.7186599343 493.1547194224
-1.8388641886 25.1825682931 493.1022468339 8.5924917297 -0.7234318082 493.1776354422
-2.1678105928 25.1825682931 493.1785404546 8.8040324298 -0.5211348681 493.2573925787
-2.4967569970 25.1825682931 493.3013036528 8.9964309749 -0.1643000289 493.3833590123
-2.8257034011 25.1825682931 493.5275024798 9.1587895146 0.2818769140 493.6125591837
-3.1546498053 25.1825682931 493.9540722255 9.3248432218 0.7221552132 494.0426091720
-3.4835962094 25.1825682931 494.6224285273 9.4803332112 1.0339853272 494.7143545984
-3.8125426136 25.1825682931 495.5067859077 9.6074794105 1.2220976227 495.6014245982
-4.1414890178 25.1825682931 496.4906603785 9.6933487165 1.3284616125 496.5870534586
-4.4704354219 25.1825682931 497.4479927224 9.7686233109 1.3157378755 497.5456387419
-4.7993818261 25.1825682931 498.2855701266 9.8338802941 1.2829334554 498.3842498678
-5.1283282302 25.1825682931 498.8946594994 9.8874888822 1.3893574302 498.9945631242
-5.4572746344 25.1825682931 499.1569311515 9.8948820184 1.7505154420 499.2580644427
-5.7862210386 25.1825682931 499.1697523010 9.8420055384 2.3411514343 499.2722580670
-6.1151674427 25.1825682931 499.1410971524 9.7806290462 2.9880847455 499.2458554876
-6.4441138469 25.1825682931 499.2716302595 9.7097730623 3.4667986876 499.3780723741
-6.7730602510 25.1825682931 499.5263048889 9.6568188805 3.7031244261 499.6333621341
-7.1020066552 25.1825682931 499.7871332879 9.6223063214 3.7294451650 499.8936648332
-7.4309530593 25.1825682931 500.0453176519 9.5634665691 3.5315870764 500.1492294363
-7.7598994635 25.1825682931 500.3681582322 9.4842217717 3.1390054149 500.4678786799
-8.0888458677 25.1825682931 500.7764131983 9.4299377062 2.6294270420 500.8720930811
-8.4177922718 25.1825682931 501.2023456569 9.4420625378 2.0665319604 501.2955359778
-8.7467386760 25.1825682931 501.5550220785 9.5053934467 1.6007357582 501.6476403131
-9.0756850801 25.1825682931 501.8019309574 9.6026978677 1.2852325281 501.8954488153
-9.4046314843 25.1825682931 501.9413568472 9.6532006000 1.2136918174 502.0356392163
-9.7335778885 25.1825682931 501.9848287281 9.6345723597 1.3475123705 502.0790864468
-10.0625242926 25.1825682931 501.9917694288 9.5723103542 1.6768415326 502.0858268238
-10.3914706968 25.1825682931 501.9859886604 9.5507813146 2.0320627869 502.0809491648
-10.7204171009 25.1825682931 501.9732127135 9.5747785402 2.3693981762 502.0701113527
-11.0493635051 25.1825682931 501.9196761890 9.5996591552 2.6562649841 502.0184962183
-11.3783099093 25.1825682931 501.8363454633 9.6225325941 2.8393384309 501.9366220991
-11.7072563134 25.1825682931 501.7977419745 9.6437485347 2.8918854862 501.8987335491
-12.0362027176 25.1825682931 501.8674800289 9.6609928458 2.8173087236 501.9683650608
-12.3651491217 25.1825682931 502.0458268692 9.6731082170 2.6511317905 502.1460044639
-12.6940955259 25.1825682931 502.2564408415 9.7114485640 2.5194561512 502.3566385141
-13.0230419300 25.1825682931 502.4330038309 9.7612601744 2.4883039229 502.5339761600
-13.3519883342 25.1825682931 502.5278815096 9.8141338117 2.5616310697 502.6302327465
-13.6809347384 25.1825682931 502.5403518564 9.8762896418 2.6791024092 502.6445303898
-14.0098811425 25.1825682931 502.5476388580 9.8850684080 2.7846925268 502.6525623248
-14.3388275467 25.1825682931 502.6016669336 9.8248430544 2.8895314365 502.7059901547
-14.6677739508 25.1825682931 502.7115912650 9.7161228180 3.0285718686 502.8145973243
-14.9967203550 25.1825682931 502.8468590722 9.6128419232 3.2119850386 502.9489907103
-15.3256667592 25.1825682931 502.9688368410 9.5501625553 3.4076866245 503.0710374948
-15.6546131633 25.1825682931 503.0685995299 9.5505863943 3.5864402008 503.1720303105
-15.9835595675 25.1825682931 503.2009527684 9.5763123890 3.6684065585 503.3054359260
-16.3125059716 25.1825682931 503.3557703606 9.5923793322 3.6812709833 503.4606211538
-16.6414523758 25.1825682931 503.5073389676 9.5865601505 3.7030457453 503.6122070379
-16.9703987800 25.1825682931 503.6053987310 9.5733433886 3.7934644375 503.7106678512
-17.2993451841 25.1825682931 503.6418248131 9.5334402511 3.9475008154 503.7475130924
-17.6282915883 25.1825682931 503.6096517836 9.4704617427 4.1385461794 503.7156922111
-17.9572379924 25.1825682931 503.5500976554 9.4010050875 4.3499844567 503.6566311588
-18.2861843966 25.1825682931 503.4657921548 9.3322661264 4.5699454350 503.5730130402
-18.6151308008 25.1825682931 503.3668330064 9.2873476202 4.7912749001 503.4753019880
-18.9440772049 25.1825682931 503.3389231053 9.2272119693 4.9639000092 503.4479647956
-19.2730236091 25.1825682931 503.3748955436 9.1674467164 5.1032967184 503.4842313124
-19.6019700132 25.1825682931 503.4487503956 9.1362799800 5.2127587636 503.5586249293
-19.9309164174 25.1825682931 503.5423894220 9.1646778622 5.2641970394 503.6532944751
-20.2598628215 25.1825682931 503.6219029428 9.2358374171 5.2835812075 503.7342931019
-20.5888092257 25.1825682931 503.6572584111 9.3092028258 5.2830339463 503.7709853248
-20.9177556299 25.1825682931 503.6420707780 9.3718086733 5.2754433570 503.7568823926
-21.2467020340 25.1825682931 503.5787299952 9.4027444163 5.3133507145 503.6945310423
-21.5756484382 25.1825682931 503.5182174418 9.3989208871 5.3789674764 503.6346575651
-21.9045948423 25.1825682931 503.4837797994 9.3693613711 5.4925550280 503.6009031111
-22.2335412465 25.1825682931 503.4621686058 9.3090507107 5.6599628236 503.5800321911
-22.5624876507 25.1825682931 503.4280195788 9.2881758817 5.8619156571 503.5478161639
-22.8914340548 25.1825682931 503.3218031458 9.3161116023 6.0668958397 503.4445696226
-23.2203804590 25.1825682931 503.1543160274 9.4226154007 6.2234891044 503.2810181545
-23.5493268631 25.1825682931 502.9790784128 9.5495228106 6.2787776712 503.1089044689
-23.8782732673 25.1825682931 502.7815035242 9.6430286848 6.3139300921 502.9136049079
-24.2072196715 25.1825682931 502.5232460174 9.6825284094 6.4772819255 502.6582530163
-24.5361660756 25.1825682931 502.2483821472 9.7013097205 6.7874517186 502.3879201181
-24.8651124798 25.1825682931 502.0134231059 9.7132853980 7.1796778108 502.1587126250
-25.1940588839 25.1825682931 501.8149124062 9.7652037502 7.5333357370 501.9664497402
-25.5230052881 25.1825682931 501.5990797080 9.8524641029 7.7811091256 501.7561693412
-25.8519516923 25.1825682931 501.3662603679 9.9774534859 7.9102584011 501.5279142793
-26.1808980964 25.1825682931 501.1601418769 10.1093226339 7.9453735571 501.3250593887
-26.5098445006 25.1825682931 501.0640949494 10.1896519948 7.8015533819 501.2284114956
-26.8387909047 25.1825682931 501.1052318859 10.2087590524 7.4683599262 501.2648487425
-27.1677373089 25.1825682931 501.2720176018 10.1302305925 7.0214178075 501.4235310698
-27.4966837130 25.1825682931 501.5342604742 9.9437034758 6.5641867554 501.6757720042
-27.8256301172 25.1825682931 501.8810270824 9.6988531325 6.1059930974 502.0118686337
-28.1545765214 25.1825682931 502.3323213135 9.4787655042 5.5658284504 502.4525713717
-28.4835229255 25.1825682931 502.8841621367 9.3064490583 4.8874028615 502.9940131142
-28.8124693297 25.1825682931 503.4551156639 9.1637022228 4.0939763553 503.5551484882
-29.1414157338 25.1825682931 503.9391595207 9.0506567812 3.2904946015 504.0311679264
-29.4703621380 25.1825682931 504.2183501816 8.9947650017 2.6246755778 504.3054028852
-29.7993085422 25.1825682931 504.2270499059 9.0032241412 2.2253215914 504.3123317528
-30.1282549463 25.1825682931 504.0154559253 9.0994062902 2.1175190273 504.1020361924
-30.4572013505 25.1825682931 503.7386555216 9.2895267627 2.2347728810 503.8292593567
-30.7861477546 25.1825682931 503.5070372870 9.4949730609 2.5641513250 503.6030837704
-31.1150941588 25.1825682931 503.3347062263 9.6534989418 3.1316895812 503.4370109689
-31.4440405630 25.1825682931 503.1406072157 9.7609129007 3.8949092099 503.2503515824
-31.7729869671 25.1825682931 502.8727650533 9.8662016884 4.6642010498 502.9911674567
-32.1019333713 25.1825682931 502.5577130867 10.0209859512 5.2213723024 502.6847300954
-32.4308797754 25.1825682931 502.2512804394 10.2071426373 5.4955251873 502.3850468126
-32.7598261796 25.1825682931 502.0257942682 10.3497759785 5.5318392520 502.1629389142
-33.0887725838 25.1825682931 501.8940826702 10.4053235931 5.4969521010 502.0320283218
-33.4177189879 25.1825682931 501.8785245391 10.4193082460 5.4951651399 502.0167449575
-33.7466653921 25.1825682931 501.9548418356 10.4594544348 5.5299067269 502.0942573837
-34.0756117962 25.1825682931 502.0393621525 10.5244470421 5.5654944239 502.1805052611
-34.4045582004 25.1825682931 502.0634574031 10.6322522093 5.6461914230 502.2077652965
-34.7335046045 25.1825682931 502.0078402265 10.7850688991 5.7948964459 502.1571170310
-35.0624510087 25.1825682931 501.9369801015 10.9553671245 5.9143676832 502.0913580289
-35.3913974129 25.1825682931 501.9393423992 11.1032242459 5.8697003612 502.0964433444
-35.7203438170 25.1825682931 502.0613083451 11.2220987488 5.6292668280 502.2182608015
-36.0492902212 25.1825682931 502.2553886372 11.3157536719 5.3130895324 502.4109379946
-36.3782366253 25.1825682931 502.4286263436 11.4540277259 4.9998272544 502.5840403288
-36.7071830295 25.1825682931 502.5275364580 11.5988334990 4.7053882023 502.6833978909
-37.0361294337 25.1825682931 502.5634163111 11.7159680262 4.4541691652 502.7196942074
-37.3650758378 25.1825682931 502.5489791002 11.8278204599 4.2744732813 502.7063206817
-37.6940222420 25.1825682931 502.4761664364 11.9833228301 4.2571423821 502.6370670016
-38.0229686461 25.1825682931 502.3600314072 12.1371509869 4.4869876813 502.5266606340
-38.3519150503 25.1825682931 502.2457431656 12.1991027138 4.9168236889 502.4179333883
-38.6808614545 25.1825682931 502.2375160909 12.1180154603 5.3850639808 502.4125473970
-39.0098078586 25.1825682931 502.2836099744 11.9386062654 5.7673822676 502.4585732841
-39.3387542628 25.1825682931 502.1994196482 11.7283825359 6.0812266088 502.3731614735
-39.6677006669 25.1825682931 501.9440142236 11.5289074617 6.2780949577 502.1156476336
-39.9966470711 25.1825682931 501.6200995689 11.3352015522 6.3826901581 501.7887501922
-40.3255934753 25.1825682931 501.3377763149 11.1166561160 6.4259371287 501.5021821204
-40.6545398794 25.1825682931 501.2330135125 10.9100079280 6.3973590189 501.3925491172
-40.9834862836 25.1825682931 501.2586690071 10.7694661113 6.3999012519 501.4151906267
-41.3124326877 25.1825682931 501.2871797356 10.6809688523 6.5584744952 501.4438485520
-41.6413790919 25.1825682931 501.2721630635 10.5988378037 6.8754516877 501.4313399271
-41.9703254960 25.1825682931 501.2816513552 10.5134358589 7.2312700071 501.4440323554
-42.2992719002 25.1825682931 501.3571948222 10.4248203346 7.4257003195 501.5205426543
-42.6282183044 25.1825682931 501.5111072994 10.3564861263 7.4384517137 501.6731785868
-42.9571647085 25.1825682931 501.6732053949 10.3083048791 7.3792783643 501.8333587057
-43.2861111127 25.1825682931 501.7487539408 10.2971685436 7.3379955913 501.9080492883
-43.6150575168 25.1825682931 501.7027922633 10.3108924235 7.2736340588 501.8614470347
-43.9440039210 25.1825682931 501.5996307065 10.3078838512 7.1784346634 501.7568852728
-44.2729503252 25.1825682931 501.5663184396 10.2820504869 7.1427303316 501.7225437947
-44.6018967293 25.1825682931 501.7653196540 10.2291187730 7.2361919313 501.9217402663
-44.9308431335 25.1825682931 502.1367378690 10.1291844688 7.4883192512 502.2947131126
-45.2597895376 25.1825682931 502.4201452201 9.9783929986 7.7907064455 502.5796113620
-45.5887359418 25.1825682931 502.4465578077 9.8453933156 7.8506465442 502.6043253629
-45.9176823460 25.1825682931 502.2611778015 9.7796177531 7.4783488880 502.4120394179
-46.2466287501 25.1825682931 502.0513759308 9.7389507325 6.8963414323 502.1931807188
-46.5755751543 25.1825682931 501.9131079728 9.6800615952 6.5026982036 502.0485600332
-46.9045215584 25.1825682931 501.8211663041 9.5950858110 6.5106979782 501.9551153347
-47.2334679626 25.1825682931 501.8737050738 9.4700857719 6.8135945406 502.0092862086
-47.5624143668 25.1825682931 502.1403708078 9.3158407581 7.0728871028 502.2765798004
-47.8913607709 25.1825682931 502.4870645081 9.1736385825 7.0412768344 502.6201201925
8.6874207444 24.8536218889 503.0879006761 11.0661873947 0.0205867390 503.2095952324
8.3584743403 24.8536218889 502.8140511666 10.6831699960 -0.0762175154 502.9275355167
8.0295279361 24.8536218889 502.3081647550 10.3386606967 0.0837519782 502.4145572123
7.7005815320 24.8536218889 501.7470634238 10.0293114161 0.3868249390 501.8474393433
7.3716351278 24.8536218889 501.2279427628 9.7427815506 0.7955979437 501.3232543725
7.0426887237 24.8536218889 500.7626051845 9.4454028616 1.2542024621 500.8532473791
6.7137423195 24.8536218889 500.3889192583 9.1660831886 1.6798129101 500.4756830945
6.3847959153 24.8536218889 500.1090134445 8.9170538194 2.0993821520 500.1929093687
6.0558495112 24.8536218889 499.8322822637 8.7066933741 2.5959914292 499.9148488233
5.7269031070 24.8536218889 499.4816841698 8.5285712192 3.1811868331 499.5646197419
5.3979567029 24.8536218889 499.0411486589 8.3886934490 3.8632381138 499.1266000137
5.0690102987 24.8536218889 498.5363024347 8.2731987668 4.6227350597 498.6263734927
4.7400638945 24.8536218889 498.0564637241 8.2166050334 5.3573134791 498.1530432139
4.4111174904 24.8536218889 497.6804220890 8.1929995022 5.8844977250 497.7826383925
4.0821710862 24.8536218889 497.4182951415 8.1443355868 6.1113246773 497.5225008308
3.7532246821 24.8536218889 497.2382974234 8.0308914067 6.0636187566 497.3401121102
3.4242782779 24.8536218889 497.1080639467 7.8565696104 5.8294100165 497.2043191164
3.0953318737 24.8536218889 497.0057697270 7.6698614411 5.5297037602 497.0957046084
2.7663854696 24.8536218889 496.8794266195 7.5420457024 5.1897734436 496.9637620587
2.4374390654 24.8536218889 496.6537320180 7.4973838559 4.7390971177 496.7329255582
2.1084926613 24.8536218889 496.3483509634 7.4936673504 4.2057502634 496.4227320437
1.7795462571 24.8536218889 496.0285833412 7.5070641100 3.6555952566 496.0988559548
1.4505998529 24.8536218889 495.7986910609 7.5858166578 3.0602237506 495.8661630334
1.1216534488 24.8536218889 495.6328363703 7.6856196299 2.3875514196 495.6981719145
0.7927070446 24.8536218889 495.4340677640 7.8061310215 1.7238752517 495.4985599662
0.4637606405 24.8536218889 495.1576792512 7.9178131972 1.1890539558 495.2224075469
0.1348142363 24.8536218889 494.8013846189 8.0100633867 0.7852087591 494.8668385425
-0.1941321678 24.8536218889 494.4238706835 8.1089721480 0.4379823055 494.4905571995
-0.5230785720 24.8536218889 494.0776369340 8.2201173657 0.0647032093 494.1460167140
-0.8520249762 24.8536218889 493.7730308175 8.3668537641 -0.2792398728 493.8439917418
-1.1809713803 24.8536218889 493.5643104521 8.5376199694 -0.5262589247 493.6384268422
-1.5099177845 24.8536218889 493.4739115095 8.7289676935 -0.6723192688 493.5515659287
-1.8388641886 24.8536218889 493.4848907432 8.9375019145 -0.6543684469 493.5662514095
-2.1678105928 24.8536218889 493.5708262616 9.1497544989 -0.4491714956 493.6558318292
-2.4967569970 24.8536218889 493.7359473802 9.3407866397 -0.1011989288 493.8243070887
-2.8257034011 24.8536218889 494.0223893030 9.5051464423 0.3184594805 494.1139244729
-3.1546498053 24.8536218889 494.4793662696 9.6525049260 0.6963235013 494.5740585434
-3.4835962094 24.8536218889 495.1303663839 9.7788650547 0.9327336427 495.2278020359
-3.8125426136 24.8536218889 495.9491279904 9.8824065148 1.0704320997 496.0487328255
-4.1414890178 24.8536218889 496.8337761109 9.9703516825 1.1501783523 496.9351385317
-4.4704354219 24.8536218889 497.6914764773 10.0521921141 1.1649836806 497.7943445957
-4.7993818261 24.8536218889 498.4412802937 10.1274470063 1.1946280888 498.5455869025
-5.1283282302 24.8536218889 498.9801534678 10.1746234519 1.3583102913 499.0857256264
-5.4572746344 24.8536218889 499.2455109018 10.1682140264 1.7567894776 499.3521393179
-5.7862210386 24.8536218889 499.2883701173 10.1249340835 2.3645505797 499.3966178540
-6.1151674427 24.8536218889 499.2979023784 10.0686682065 2.9775476587 499.4082890671
-6.4441138469 24.8536218889 499.4271973815 9.9833216173 3.4092987241 499.5386026251
-6.7730602510 24.8536218889 499.6679358029 9.8934811209 3.6024091257 499.7788554849
-7.1020066552 24.8536218889 499.9072416599 9.8136071395 3.5898200669 500.0164436868
-7.4309530593 24.8536218889 500.1547989511 9.7403265404 3.3814260599 500.2610627634
-7.7598994635 24.8536218889 500.4734172439 9.6748742028 2.9875621651 500.5758384964
-8.0888458677 24.8536218889 500.9181562359 9.6489128939 2.4375694381 501.0170082059
-8.4177922718 24.8536218889 501.3969268185 9.6877688254 1.8542572695 501.4939375086
-8.7467386760 24.8536218889 501.7913036657 9.7627925713 1.3658199290 501.8881250014
-9.0756850801 24.8536218889 502.0501843113 9.8380621655 1.0752201067 502.1477184379
-9.4046314843 24.8536218889 502.1466625136 9.8872681658 1.0267211011 502.2450426849
-9.7335778885 24.8536218889 502.1469138341 9.8863305640 1.2481605075 502.2457769955
-10.0625242926 24.8536218889 502.1053795396 9.8542680143 1.6849445751 502.2048962316
-10.3914706968 24.8536218889 502.0837334217 9.8584941623 2.1511225752 502.1851178621
-10.7204171009 24.8536218889 502.0908904566 9.8868146390 2.5246477906 502.1945690961
-11.0493635051 24.8536218889 502.0883317458 9.9136270562 2.7666224153 502.1938142552
-11.3783099093 24.8536218889 502.0287593510 9.9215672932 2.8926279810 502.1351212668
-11.7072563134 24.8536218889 501.9651536241 9.9266595259 2.9058256675 502.0717058797
-12.0362027176 24.8536218889 501.9545622932 9.9588454025 2.8606753805 502.0614949111
-12.3651491217 24.8536218889 502.0580025368 10.0000885859 2.7648043600 502.1651957534
-12.6940955259 24.8536218889 502.2234122831 10.0470441875 2.6736465845 502.3310137033
-13.0230419300 24.8536218889 502.3808572447 10.1004402497 2.6040868429 502.4891301187
-13.3519883342 24.8536218889 502.4850802444 10.1561853729 2.6257997312 502.5945670158
-13.6809347384 24.8536218889 502.5446885742 10.1856795381 2.6771291253 502.6550299182
-14.0098811425 24.8536218889 502.5962724840 10.1771160625 2.7554110829 502.7068520484
-14.3388275467 24.8536218889 502.6946813163 10.1052895830 2.8247097244 502.8041750883
-14.6677739508 24.8536218889 502.8395940370 9.9668218414 2.9141017553 502.9468032088
-14.9967203550 24.8536218889 503.0058388110 9.8151654131 3.0286288885 503.1107074422
-15.3256667592 24.8536218889 503.1712745531 9.7097914240 3.1600191903 503.2748725162
-15.6546131633 24.8536218889 503.3248138216 9.6624850372 3.2643403111 503.4281356294
-15.9835595675 24.8536218889 503.4963850825 9.6559921668 3.2753523999 503.5996186547
-16.3125059716 24.8536218889 503.6603671850 9.6558800853 3.2683802885 503.7635197222
-16.6414523758 24.8536218889 503.7820240420 9.6465495628 3.3183444135 503.8852995236
-16.9703987800 24.8536218889 503.8207363004 9.6353935395 3.5073677955 503.9250705847
-17.2993451841 24.8536218889 503.7976071311 9.6184656759 3.7795277144 503.9035906428
-17.6282915883 24.8536218889 503.7270931958 9.5872532953 4.0899594500 503.8349209945
-17.9572379924 24.8536218889 503.6355832965 9.5609167609 4.3923708667 503.7454762214
-18.2861843966 24.8536218889 503.5463203417 9.5402590602 4.6604198520 503.6582499928
-18.6151308008 24.8536218889 503.4745236870 9.5119386714 4.8699598537 503.5879163445
-18.9440772049 24.8536218889 503.4494518301 9.4698806434 4.9872567188 503.5632054837
-19.2730236091 24.8536218889 503.4675511258 9.4376616347 5.0597114913 503.5814186148
-19.6019700132 24.8536218889 503.5122232941 9.4278394914 5.1353945353 503.6266627583
-19.9309164174 24.8536218889 503.5865218816 9.4804342928 5.2200404511 503.7028017368
-20.2598628215 24.8536218889 503.6566785427 9.5596338175 5.2958793161 503.7752304124
-20.5888092257 24.8536218889 503.7058625492 9.6312805610 5.3486377185 503.8263246965
-20.9177556299 24.8536218889 503.7021536988 9.6860733725 5.3709431176 503.8239044429
-21.2467020340 24.8536218889 503.6619481050 9.7084489124 5.3688827302 503.7841173072
-21.5756484382 24.8536218889 503.5968880876 9.7026625694 5.4135593154 503.7194397449
-21.9045948423 24.8536218889 503.5474661485 9.6847612783 5.5425816409 503.6710885855
-22.2335412465 24.8536218889 503.5001164422 9.6658121413 5.7337417389 503.6255265334
-22.5624876507 24.8536218889 503.4475002534 9.6647504581 5.9128934155 503.5749747767
-22.8914340548 24.8536218889 503.3601969097 9.6752723847 6.0562163714 503.4895991830
-23.2203804590 24.8536218889 503.2385830985 9.6967219451 6.1471112050 503.3695311713
-23.5493268631 24.8536218889 503.0984429513 9.7366348075 6.1813036257 503.2306169858
-23.8782732673 24.8536218889 502.8932221145 9.7823431349 6.2589710493 503.0272972757
-24.2072196715 24.8536218889 502.6154152133 9.8180004281 6.4542550006 502.7527286352
-24.5361660756 24.8536218889 502.3452723931 9.8375393761 6.8179253013 502.4878446113
-24.8651124798 24.8536218889 502.1307856150 9.8636158074 7.2620435409 502.2801549489
-25.1940588839 24.8536218889 501.9788095859 9.9207384852 7.6265242277 502.1347530267
-25.5230052881 24.8536218889 501.8159686850 10.0247611397 7.8535724444 501.9775302375
-25.8519516923 24.8536218889 501.5882871945 10.1681574083 7.9746988996 501.7547180629
-26.1808980964 24.8536218889 501.3570737690 10.3123283496 8.0135287368 501.5271440082
-26.5098445006 24.8536218889 501.1979046724 10.3951901645 7.9030850081 501.3679869908
-26.8387909047 24.8536218889 501.1667023395 10.3964693990 7.5647616234 501.3316025629
-27.1677373089 24.8536218889 501.2833029730 10.3198962648 7.0417576312 501.4389658263
-27.4966837130 24.8536218889 501.5322157327 10.1741657908 6.4683808678 501.6771043394
-27.8256301172 24.8536218889 501.8838745797 9.9780653530 5.9557373488 502.0183822916
-28.1545765214 24.8536218889 502.3331626662 9.7745617100 5.4564534694 502.4578800808
-28.4835229255 24.8536218889 502.8614239908 9.6099449916 4.8698507383 502.9768167888
-28.8124693297 24.8536218889 503.4164458364 9.4664409333 4.1602139836 503.5226299014
-29.1414157338 24.8536218889 503.9313976961 9.3589816422 3.3559614332 504.0294699702
-29.4703621380 24.8536218889 504.3206247793 9.2715515099 2.6359816179 504.4127304542
-29.7993085422 24.8536218889 504.4632366834 9.2301223510 2.1759260781 504.5523629694
-30.1282549463 24.8536218889 504.3263224235 9.3077184415 2.0590645047 504.4164081971
-30.4572013505 24.8536218889 504.0133951761 9.4994787024 2.2511057176 504.1079349599
-30.7861477546 24.8536218889 503.6708007148 9.7178962661 2.6802017233 503.7716709799
-31.1150941588 24.8536218889 503.3833965815 9.8750301800 3.2881788507 503.4909853166
-31.4440405630 24.8536218889 503.1521825088 9.9291714433 4.0121746894 503.2661371031
-31.7729869671 24.8536218889 502.9204851026 9.9506073929 4.7130916471 503.0409945085
-32.1019333713 24.8536218889 502.6322874200 10.0295908345 5.2755047086 502.7600222763
-32.4308797754 24.8536218889 502.3115719004 10.1991508062 5.6171916849 502.4465053960
-32.7598261796 24.8536218889 502.0337493212 10.3727370428 5.7014050035 502.1732620822
-33.0887725838 24.8536218889 501.8307926336 10.4641113430 5.6713331330 501.9719176218
-33.4177189879 24.8536218889 501.7679444886 10.5069998361 5.6401855083 501.9096321595
-33.7466653921 24.8536218889 501.8526099619 10.5367836962 5.6218478806 501.9946923124
-34.0756117962 24.8536218889 501.9905195467 10.5834733378 5.6332195621 502.1336722282
-34.4045582004 24.8536218889 502.0885162072 10.6802120966 5.7278181643 502.2347587916
-34.7335046045 24.8536218889 502.1230051940 10.8265427270 5.8759218852 502.2740813844
-35.0624510087 24.8536218889 502.1058999289 10.9925251198 6.0015463666 502.2620719412
-35.3913974129 24.8536218889 502.0553269401 11.1432164270 5.9983718107 502.2147977168
-35.7203438170 24.8536218889 502.0395183586 11.2561459893 5.8359035421 502.1995983535
-36.0492902212 24.8536218889 502.0803546775 11.3588125693 5.5878859755 502.2399124380
-36.3782366253 24.8536218889 502.1499842309 11.5007314673 5.3208781414 502.3098498254
-36.7071830295 24.8536218889 502.2426976901 11.6683250841 5.0246012353 502.4033477305
-37.0361294337 24.8536218889 502.3733742185 11.8123921267 4.7042321674 502.5342471233
-37.3650758378 24.8536218889 502.4925113522 11.9482585554 4.3952437398 502.6537605700
-37.6940222420 24.8536218889 502.5310271099 12.0911982167 4.2376174602 502.6943282793
-38.0229686461 24.8536218889 502.4745999246 12.1846706770 4.3967472456 502.6415434037
-38.3519150503 24.8536218889 502.3796212665 12.1882601471 4.8232262250 502.5505955230
-38.6808614545 24.8536218889 502.3597039750 12.1267773241 5.3260035041 502.5342746714
-39.0098078586 24.8536218889 502.3996537126 12.0208863611 5.7443606135 502.5762742493
-39.3387542628 24.8536218889 502.3345640882 11.9108714301 6.0419467812 502.5120777224
-39.6677006669 24.8536218889 502.1162604592 11.7879798013 6.2075190605 502.2929710619
-39.9966470711 24.8536218889 501.8030391322 11.6359912195 6.3117646687 501.9776137909
-40.3255934753 24.8536218889 501.5672516975 11.4675470893 6.3212794813 501.7381500204
-40.6545398794 24.8536218889 501.4482878856 11.3103831638 6.2773099026 501.6151062422
-40.9834862836 24.8536218889 501.4243377906 11.1725975084 6.2539286814 501.5877840297
-41.3124326877 24.8536218889 501.3802053789 11.0432616535 6.4000080849 501.5426443257
-41.6413790919 24.8536218889 501.3049622264 10.9026515240 6.7280554322 501.4686427814
-41.9703254960 24.8536218889 501.2948187652 10.7584937867 7.1277133407 501.4609105472
-42.2992719002 24.8536218889 501.3709851299 10.6227880237 7.3853515258 501.5378866772
-42.6282183044 24.8536218889 501.5243228669 10.5135386421 7.4491556213 501.6898153654
-42.9571647085 24.8536218889 501.6744992470 10.4516489236 7.4092057233 501.8380580320
-43.2861111127 24.8536218889 501.7411453372 10.4536792722 7.3933772195 501.9044912743
-43.6150575168 24.8536218889 501.7160979612 10.4972539978 7.3842657200 501.8802274200
-43.9440039210 24.8536218889 501.6644676462 10.5205821723 7.3484383845 501.8285766023
-44.2729503252 24.8536218889 501.6830064597 10.4757032470 7.3220369386 501.8457846330
-44.6018967293 24.8536218889 501.8778664412 10.3748067334 7.3491199780 502.0388819631
-44.9308431335 24.8536218889 502.2164034572 10.1886717481 7.4969051353 502.3756846425
-45.2597895376 24.8536218889 502.4585217434 9.9645648648 7.7094012563 502.6164476947
-45.5887359418 24.8536218889 502.4393760592 9.7741151622 7.7649422501 502.5944232381
-45.9176823460 24.8536218889 502.2282505034 9.6880958261 7.4697351498 502.3772205700
-46.2466287501 24.8536218889 502.0452475672 9.6632514598 6.9823669019 502.1867804723
-46.5755751543 24.8536218889 501.9568560025 9.6451507669 6.6300158016 502.0932894699
-46.9045215584 24.8536218889 501.9118348264 9.5762957118 6.6152976966 502.0467682815