# Kim, K. U., Elliott, G. S., and Dutton, J. C., “A Three-Dimensional Experimental Study of Compressibility Effects on Turbulent Free Shear Layers,” AIAA Aviation Conference, Atlanta, GA, 2018.
# This work was funded by the NASA Aeronautics Mission Directorate's Transformative Aeronautics Concepts Program, Transformational Tools and Technologies Project; Grant Number NNX15AU94A.
VARIABLES = "z (mm)", "y (mm)", "U (m/s)", "V (m/s)", "W (m/s)", "|V| (m/s)"
ZONE T="Frame 0", I=249, J=124, F=POINT
33.8221795335 28.1744303480 501.0606916111 20.0439880381 5.5680048633 501.4923536929
33.4659391269 28.1744303480 501.2332039610 20.1462243083 5.4523480239 501.6675425078
33.1096987203 28.1744303480 501.3534920737 20.1154647669 5.3887183619 501.7858051230
32.7534583136 28.1744303480 501.4412024275 19.9952285941 5.3630510140 501.8683602048
32.3972179070 28.1744303480 501.5004370188 19.8067582927 5.3537555948 501.9199724091
32.0409775004 28.1744303480 501.5110220096 19.5932528052 5.2934393681 501.9215289793
31.6847370937 28.1744303480 501.4761428078 19.3682148554 5.2035475680 501.8770033179
31.3284966871 28.1744303480 501.4319179805 19.1845105852 5.2112832792 501.8258376064
30.9722562805 28.1744303480 501.4105906394 19.0591253866 5.3363009691 501.8010629462
30.6160158738 28.1744303480 501.4000080049 19.0129873934 5.5177963155 501.7907011824
30.2597754672 28.1744303480 501.4062872390 19.0103665837 5.7539806788 501.7995289098
29.9035350606 28.1744303480 501.4579061359 19.0437807317 6.0382491151 501.8557139887
29.5472946540 28.1744303480 501.5101432133 19.1628506771 6.2520760143 501.9150595931
29.1910542473 28.1744303480 501.5928957992 19.4339233720 6.3127714460 502.0089257943
28.8348138407 28.1744303480 501.7579051698 19.8396562447 6.1036926181 502.1870791089
28.4785734341 28.1744303480 502.0871888113 20.3356390132 5.7382957169 502.5316024095
28.1223330274 28.1744303480 502.5240624067 20.8921403351 5.3255890980 502.9863583884
27.7660926208 28.1744303480 503.0063520713 21.4462401813 4.9114172522 503.4872922541
27.4098522142 28.1744303480 503.4212949346 22.0171933945 4.4366512670 503.9220583315
27.0536118075 28.1744303480 503.7490289430 22.5675487853 3.9035473401 504.2693884235
26.6973714009 28.1744303480 503.9830372571 23.0646751687 3.3062412438 504.5213695322
26.3411309943 28.1744303480 504.1315040393 23.4763389697 2.5970883861 504.6845120711
25.9848905876 28.1744303480 504.2075442117 23.7464767798 1.7520538470 504.7694646986
25.6286501810 28.1744303480 504.1733407144 23.9309415599 0.8299452570 504.7416529871
25.2724097744 28.1744303480 504.0898575083 24.0310841214 0.0182143548 504.6623403610
24.9161693677 28.1744303480 503.9748023046 24.0868670026 -0.6647869153 504.5505132904
24.5599289611 28.1744303480 503.8770398729 24.1080081083 -1.2489000861 504.4549802683
24.2036885545 28.1744303480 503.8580782331 24.1210096701 -1.7248866124 504.4380649218
23.8474481478 28.1744303480 503.8319594363 24.1290584069 -2.1840373110 504.4141401944
23.4912077412 28.1744303480 503.7615221513 24.1719708241 -2.7119896890 504.3484016648
23.1349673346 28.1744303480 503.6944221505 24.2125821873 -3.3062713683 504.2868741819
22.7787269279 28.1744303480 503.6292116501 24.2358935427 -4.0070461052 504.2279422856
22.4224865213 28.1744303480 503.6006590721 24.2147386679 -4.8122947118 504.2054497593
22.0662461147 28.1744303480 503.6102474910 24.1516974466 -5.6113310717 504.2202622901
21.7100057080 28.1744303480 503.6446247929 23.9947233779 -6.3445147100 504.2557959009
21.3537653014 28.1744303480 503.6594122506 23.7660105971 -7.0019301909 504.2684343033
20.9975248948 28.1744303480 503.6535671883 23.4513789545 -7.5310434881 504.2554903344
20.6412844881 28.1744303480 503.6377836442 23.0141404585 -7.8787122918 504.2248921686
20.2850440815 28.1744303480 503.6008293703 22.4840980962 -7.8653702823 504.1638563596
19.9288036749 28.1744303480 503.4147993653 21.8737273032 -7.3273120416 503.9430619305
19.5725632682 28.1744303480 502.7771138254 21.1686592768 -6.1753572917 503.2604428722
19.2163228616 28.1744303480 501.5774029052 20.3694082881 -4.4131866914 502.0102390549
18.8600824550 28.1744303480 500.0951460724 19.5553146101 -2.3881976244 500.4830356192
18.5038420483 28.1744303480 498.7672777227 18.8859575524 -0.6128313974 499.1250868089
18.1476016417 28.1744303480 497.8417789199 18.4565105180 0.5275604921 498.1840603017
17.7913612351 28.1744303480 497.3352315759 18.2349833212 0.9693675174 497.6703596325
17.4351208284 28.1744303480 497.0602373279 18.1463011559 0.8657315488 497.3921162113
17.0788804218 28.1744303480 496.8987244799 18.1487186699 0.4600469440 497.2302585546
16.7226400152 28.1744303480 496.8023062782 18.1849578636 -0.0035615167 497.1350160957
16.3663996086 28.1744303480 496.6855744820 18.1719889132 -0.3649901101 497.0180221052
16.0101592019 28.1744303480 496.5369610278 18.0922975758 -0.5164856343 496.8667343017
15.6539187953 28.1744303480 496.2792104144 17.9453358088 -0.5826249619 496.6038956943
15.2976783887 28.1744303480 495.9361111754 17.7935653253 -0.5831783675 496.2555565752
14.9414379820 28.1744303480 495.5820522360 17.6731298174 -0.5361724552 495.8973658902
14.5851975754 28.1744303480 495.3295183755 17.6091180090 -0.3423412185 495.6425425734
14.2289571688 28.1744303480 495.1991614099 17.6297835360 0.0222136470 495.5128850212
13.8727167621 28.1744303480 495.2179220912 17.7679924808 0.5026022919 495.5368245915
13.5164763555 28.1744303480 495.4009178966 18.0526905160 1.0123061624 495.7307675053
13.1602359489 28.1744303480 495.7980151836 18.4861541268 1.5346867281 496.1449032468
12.8039955422 28.1744303480 496.3259159416 19.0412021616 2.0509285447 496.6952672645
12.4477551356 28.1744303480 496.9034673543 19.6453756334 2.5490172243 497.2981943877
12.0915147290 28.1744303480 497.4463518838 20.2603179224 2.9673154340 497.8676113644
11.7352743223 28.1744303480 497.9120392598 20.8574041299 3.1913133951 498.3589214894
11.3790339157 28.1744303480 498.2923763304 21.3855573767 3.1993785562 498.7613361082
11.0227935091 28.1744303480 498.5717098987 21.8100722360 3.1348274961 499.0583696379
10.6665531024 28.1744303480 498.8350545047 22.1000116985 3.1673139651 499.3344109888
10.3103126958 28.1744303480 499.2267678027 22.2642927663 3.4088730734 499.7346144092
9.9540722892 28.1744303480 499.7976434940 22.3521613523 3.8306580972 500.3118802314
9.5978318825 28.1744303480 500.4843845227 22.3831869943 4.3231797376 501.0033094643
9.2415914759 28.1744303480 501.1533185119 22.3507749212 4.8237557589 501.6746698955
8.8853510693 28.1744303480 501.6780427886 22.2846371474 5.2322371288 502.1999999744
8.5291106626 28.1744303480 501.9866022740 22.2248569804 5.4311739349 502.5077022103
8.1728702560 28.1744303480 502.0234608381 22.1732622874 5.4182911811 502.5421043770
7.8166298494 28.1744303480 501.7864577197 22.1230642537 5.2207478268 502.3010405431
7.4603894427 28.1744303480 501.3205946821 22.1105452674 4.8896430386 501.8317680992
7.1041490361 28.1744303480 500.6726048020 22.1786689840 4.5532604648 501.1842802184
6.7479086295 28.1744303480 499.9146271746 22.2794667875 4.2919968696 500.4292460884
6.3916682228 28.1744303480 498.9965510762 22.3423228329 4.1951585699 499.5141006327
6.0354278162 28.1744303480 497.8669550925 22.3930217284 4.3337291611 498.3891387296
5.6791874096 28.1744303480 496.4402307701 22.4536370209 4.7300094001 496.9702622205
5.3229470029 28.1744303480 494.7659561819 22.4762121529 5.2994599611 495.3045687102
4.9667065963 28.1744303480 493.1692248536 22.4534031911 5.7004792927 493.7130088642
4.6104661897 28.1744303480 491.9813419071 22.3907902991 5.6925439369 492.5234952075
4.2542257831 28.1744303480 491.4130056289 22.3139044504 5.2683492364 491.9475662474
3.8979853764 28.1744303480 491.4197954888 22.2266070244 4.5224610179 491.9429744511
3.5417449698 28.1744303480 491.8559264230 22.1384084125 3.6580210514 492.3674873532
3.1855045632 28.1744303480 492.6563047069 22.0602848708 2.8211290679 493.1580370482
2.8292641565 28.1744303480 493.6571279254 21.9318063156 2.1035281993 494.1485494370
2.4730237499 28.1744303480 494.6650467529 21.7810314708 1.5317060010 495.1467135448
2.1167833433 28.1744303480 495.5271788540 21.6274567116 1.1090327372 496.0001631254
1.7605429366 28.1744303480 496.2456035869 21.5230739583 0.8924293039 496.7129334153
1.4043025300 28.1744303480 496.8931188262 21.4547034171 0.8535905170 497.3568180415
1.0480621234 28.1744303480 497.4849231408 21.4275223403 0.8941574277 497.9469720598
0.6918217167 28.1744303480 498.0551155739 21.4111654310 0.9298504619 498.5159985160
0.3355813101 28.1744303480 498.5301111670 21.4222329770 0.9131381384 498.9909995453
-0.0206590965 28.1744303480 498.8275124507 21.4615073919 0.8258445607 499.2896609149
-0.3768995032 28.1744303480 498.9341062148 21.5791619651 0.7324757298 499.4010803915
-0.7331399098 28.1744303480 498.8752524420 21.8007613017 0.6466592941 499.3517886827
-1.0893803164 28.1744303480 498.6952709838 22.1153471860 0.6061904127 499.1857663731
-1.4456207231 28.1744303480 498.4604912379 22.4544573370 0.5867731315 498.9663398288
-1.8018611297 28.1744303480 498.2694707530 22.7814418018 0.4873218087 498.7902335227
-2.1581015363 28.1744303480 498.1885348826 23.0679290837 0.2522655030 498.7223769579
-2.5143419430 28.1744303480 498.1821496065 23.2961720996 -0.1452593869 498.7265652853
-2.8705823496 28.1744303480 498.2393311491 23.5274977267 -0.5837548617 498.7948626669
-3.2268227562 28.1744303480 498.4160623535 23.8205856100 -0.9144652053 498.9857991540
-3.5830631629 28.1744303480 498.7325361359 24.1389010314 -1.0936269607 499.3175594383
-3.9393035695 28.1744303480 499.2013623155 24.4052922745 -1.0949704964 499.7987768983
-4.2955439761 28.1744303480 499.7208144303 24.5765025922 -0.9892814787 500.3257694067
-4.6517843828 28.1744303480 500.1650441357 24.6520784869 -0.8748958495 500.7729643179
-5.0080247894 28.1744303480 500.4564654070 24.6412036213 -0.8460007891 501.0634474804
-5.3642651960 28.1744303480 500.5766321789 24.5587574130 -0.9297748587 501.1795703443
-5.7205056027 28.1744303480 500.5197409962 24.4405691997 -1.0608162022 501.1172296786
-6.0767460093 28.1744303480 500.2551969417 24.2969565514 -1.1127110168 500.8461263608
-6.4329864159 28.1744303480 499.8068515359 24.0793812702 -1.0120002171 500.3875793712
-6.7892268226 28.1744303480 499.2778206570 23.7457548646 -0.7500076394 499.8427408551
-7.1454672292 28.1744303480 498.7363806631 23.2962637321 -0.4312855789 499.2803614284
-7.5017076358 28.1744303480 498.2036116543 22.7841880460 -0.1945555573 498.7243685064
-7.8579480425 28.1744303480 497.7181678092 22.2621552055 -0.0230461216 498.2157952663
-8.2141884491 28.1744303480 497.3160532506 21.7880639807 0.1405516492 497.7931260148
-8.5704288557 28.1744303480 496.9832214723 21.3836875391 0.2756028664 497.4431228539
-8.9266692623 28.1744303480 496.6700310613 21.0583640966 0.3165058241 497.1163592448
-9.2829096690 28.1744303480 496.3838887201 20.8048492495 0.2675531528 496.8197644195
-9.6391500756 28.1744303480 496.1784006587 20.5798453752 0.1696638794 496.6050383370
-9.9953904822 28.1744303480 496.0766060424 20.4319708189 -0.0076685683 496.4971949094
-10.3516308889 28.1744303480 496.0416387670 20.3845018544 -0.2481583961 496.4603678936
-10.7078712955 28.1744303480 495.9403361853 20.3907761705 -0.5182167996 496.3596169685
-11.0641117021 28.1744303480 495.7734965777 20.4788062333 -0.7206352130 496.1967963709
-11.4203521088 28.1744303480 495.5048746525 20.6010271841 -0.7962547042 495.9335813866
-11.7765925154 28.1744303480 495.1434180413 20.7302590193 -0.8534918671 495.5779217409
-12.1328329220 28.1744303480 494.7483155158 20.8470633386 -1.0685058145 495.1884868010
-12.4890733287 28.1744303480 494.3622155543 20.9963488201 -1.4583311102 494.8100378541
-12.8453137353 28.1744303480 493.9437097437 21.1533333226 -1.9064026166 494.4001277073
-13.2015541419 28.1744303480 493.4095846797 21.2891632553 -2.3791658965 493.8743839847
-13.5577945486 28.1744303480 492.7481750420 21.3838111908 -2.8320790479 493.2200848100
-13.9140349552 28.1744303480 491.9552961370 21.3909210102 -3.1502729708 492.4302073580
-14.2702753618 28.1744303480 491.0014603375 21.3419487574 -3.2008719063 491.4754911603
-14.6265157685 28.1744303480 489.9933179289 21.2524271403 -3.1477433719 490.4640920217
-14.9827561751 28.1744303480 489.1607647753 21.1217627627 -3.3116750510 489.6277666242
-15.3389965817 28.1744303480 488.6300169050 20.9746011977 -3.8285547923 489.0949653675
-15.6952369884 28.1744303480 488.3343080770 20.8111667464 -4.7489776800 488.8006279614
-16.0514773950 28.1744303480 488.2372247085 20.6738191408 -5.9721758023 488.7112248278
-16.4077178016 28.1744303480 488.3300257805 20.5635357174 -7.4317675679 488.8192961097
-16.7639582083 28.1744303480 488.6112495335 20.4578746338 -9.0343852320 489.1227840959
-17.1201986149 28.1744303480 489.1622901874 20.3526579260 -10.5826178832 489.6998760744
-17.4764390215 28.1744303480 489.9257322852 20.2293965387 -11.9407966765 490.4885669053
-17.8326794282 28.1744303480 490.8691016840 20.1034219658 -13.0094243255 491.4528132833
-18.1889198348 28.1744303480 491.9721974927 20.0218391503 -13.6662340103 492.5690642953
-18.5451602414 28.1744303480 493.2381287516 19.9613595485 -13.7697111618 493.8338915819
-18.9014006481 28.1744303480 494.5775680956 19.8800132599 -13.1698708057 495.1521294386
-19.2576410547 28.1744303480 495.8071459773 19.8394291115 -11.7904894489 496.3439780949
-19.6138814613 28.1744303480 496.6537370024 19.8437923437 -9.7201557527 497.1450412112
-19.9701218680 28.1744303480 497.0413632986 19.8241105850 -7.3918469136 497.4914588121
-20.3263622746 28.1744303480 497.0538232393 19.7884007728 -5.3168540646 497.4759822736
-20.6826026812 28.1744303480 496.8938942626 19.7411263053 -3.7881250514 497.3003158199
-21.0388430879 28.1744303480 496.7645956403 19.6644109393 -2.8666458012 497.1619154737
-21.3950834945 28.1744303480 496.7950161595 19.5621777264 -2.4979232111 497.1862895321
-21.7513239011 28.1744303480 496.9775143044 19.4706626022 -2.5440019017 497.3652866576
-22.1075643077 28.1744303480 497.2141102554 19.3954354572 -2.8329767703 497.6003216549
-22.4638047144 28.1744303480 497.4208570278 19.2990549885 -3.2050306350 497.8054185634
-22.8200451210 28.1744303480 497.6552172387 19.1457014970 -3.6213965224 498.0365324386
-23.1762855276 28.1744303480 497.9098774379 18.9395622111 -4.0657703623 498.2865476366
-23.5325259343 28.1744303480 498.1750728422 18.6929355215 -4.5073036672 498.5460307997
-23.8887663409 28.1744303480 498.4377495091 18.4211425368 -4.7745837104 498.8008874067
-24.2450067475 28.1744303480 498.6147646826 18.1272581147 -4.6870215415 498.9661804343
-24.6012471542 28.1744303480 498.5558073308 17.8146059346 -4.0952194622 498.8907936917
-24.9574875608 28.1744303480 498.2928137088 17.4844974130 -3.1570965901 498.6094695275
-25.3137279674 28.1744303480 498.0698985281 17.1683779210 -2.2232921364 498.3706653166
-25.6699683741 28.1744303480 498.0147189647 16.8848521386 -1.6458944541 498.3035896979
-26.0262087807 28.1744303480 498.0441260341 16.6968685141 -1.5198550143 498.3262454001
-26.3824491873 28.1744303480 498.0709859572 16.6259640243 -1.7001003904 498.3513018680
-26.7386895940 28.1744303480 498.1311398846 16.5840390495 -1.9181305510 498.4108165948
-27.0949300006 28.1744303480 498.1677806726 16.5098279911 -2.0538479500 498.4455139852
-27.4511704072 28.1744303480 498.1552410204 16.3999226842 -2.0708046741 498.4294231405
-27.8074108139 28.1744303480 498.0994782306 16.2487197119 -2.0142629292 498.3685065903
-28.1636512205 28.1744303480 498.0470672220 16.1013854981 -1.9811996217 498.3112089200
-28.5198916271 28.1744303480 498.0037183892 15.9466496036 -1.9766379294 498.2628887049
-28.8761320338 28.1744303480 497.9331079672 15.7720738347 -1.9154879191 498.1865187025
-29.2323724404 28.1744303480 497.8551712665 15.5900665941 -1.8072365085 498.1024872825
-29.5886128470 28.1744303480 497.8017932043 15.4696146091 -1.6858384982 498.0449541407
-29.9448532537 28.1744303480 497.7978095218 15.3679048174 -1.6311159062 498.0376413508
-30.3010936603 28.1744303480 497.8724192525 15.2689771606 -1.6661650177 498.1092888331
-30.6573340669 28.1744303480 497.9521693880 15.1908551034 -1.7911079822 498.1870463438
-31.0135744736 28.1744303480 498.0625358904 15.0974437464 -1.9576363943 498.2951482861
-31.3698148802 28.1744303480 498.2059775107 14.9542291270 -2.1923349583 498.4351826755
-31.7260552868 28.1744303480 498.4135317658 14.8315141214 -2.4539031916 498.6401950297
-32.0822956935 28.1744303480 498.6323988667 14.7378082577 -2.6495960426 498.8571865283
-32.4385361001 28.1744303480 498.8322604137 14.6585036525 -2.7477625103 499.0551532221
-32.7947765067 28.1744303480 499.0235579150 14.5255161604 -2.7470880960 499.2424746222
-33.1510169134 28.1744303480 499.1365940890 14.3136950739 -2.7032979308 499.3491055816
-33.5072573200 28.1744303480 499.1264481440 14.0442160200 -2.6595741771 499.3310771174
-33.8634977266 28.1744303480 499.0536720041 13.8290243931 -2.6477529889 499.2522609386
-34.2197381333 28.1744303480 498.9374241266 13.6175612063 -2.7108831650 499.1305841710
-34.5759785399 28.1744303480 498.8394963630 13.3902015728 -2.8186633118 499.0271390342
-34.9322189465 28.1744303480 498.7781673358 13.2471307867 -2.9895878334 498.9630089699
-35.2884593531 28.1744303480 498.8646256481 13.1885070734 -3.1995799656 499.0491847041
-35.6446997598 28.1744303480 499.0953818709 13.2274927535 -3.3831754751 499.2820972614
-36.0009401664 28.1744303480 499.4370026667 13.2755717441 -3.4493343990 499.6253179590
-36.3571805730 28.1744303480 499.7973719927 13.2642286065 -3.4813632697 499.9854724905
-36.7134209797 28.1744303480 500.0319260855 13.1839783601 -3.4550964217 500.2176347166
-37.0696613863 28.1744303480 500.1059833566 13.1382255236 -3.3697174218 500.2898785249
-37.4259017929 28.1744303480 500.1190966036 13.1879776561 -3.2107624924 500.3032505771
-37.7821421996 28.1744303480 500.1325185702 13.3191215691 -2.9908872681 500.3187789174
-38.1383826062 28.1744303480 500.1698595848 13.4825238261 -2.8343233858 500.3595709836
-38.4946230128 28.1744303480 500.1267169372 13.6170139327 -2.9648804365 500.3208436382
-38.8508634195 28.1744303480 499.9832215397 13.6824651736 -3.3036495876 500.1813129007
-39.2071038261 28.1744303480 499.9025890012 13.7497882437 -3.5705213813 500.1043928919
-39.5633442327 28.1744303480 500.1136829155 13.7866569016 -3.4820649151 500.3157927988
-39.9195846394 28.1744303480 500.6502778926 13.7664698725 -3.0232226883 500.8486361388
-40.2758250460 28.1744303480 501.2450589141 13.7307823416 -2.4391645293 501.4390222082
-40.6320654526 28.1744303480 501.5222814347 13.6649177490 -2.1137558458 501.7128628173
-40.9883058593 28.1744303480 501.4611531370 13.5639697153 -2.1750035747 501.6492798963
-41.3445462659 28.1744303480 501.1425932362 13.5381805717 -2.5813134870 501.3320698579
-41.7007866725 28.1744303480 500.7631557863 13.5665906802 -3.1148914402 500.9565780828
-42.0570270792 28.1744303480 500.4040200784 13.6491986910 -3.4955856984 500.6023402412
-42.4132674858 28.1744303480 500.2417743890 13.7472133574 -3.6353410540 500.4438374318
-42.7695078924 28.1744303480 500.1411846839 13.8711059732 -3.6498603282 500.3468133988
-43.1257482991 28.1744303480 500.1347820801 14.0024124260 -3.5742136508 500.3435247940
-43.4819887057 28.1744303480 500.1383543972 14.1397901424 -3.5457393203 500.3507564417
-43.8382291123 28.1744303480 499.9814665661 14.3144210429 -3.6014335265 500.1993001623
-44.1944695190 28.1744303480 499.7422152678 14.5328936048 -3.7235996078 499.9673508454
-44.5507099256 28.1744303480 499.5417287408 14.7253321284 -3.6917283407 499.7723511938
-44.9069503322 28.1744303480 499.4645073700 14.8451346437 -3.4393078119 499.6969091191
-45.2631907389 28.1744303480 499.5005484265 14.9475966866 -3.1631318149 499.7341632588
-45.6194311455 28.1744303480 499.6208577345 15.1153865428 -2.8756652602 499.8577256024
-45.9756715521 28.1744303480 499.7302625064 15.3244351974 -2.7191977057 499.9725668624
-46.3319119588 28.1744303480 499.7537273143 15.4653120658 -2.7466293531 500.0005078144
-46.6881523654 28.1744303480 499.6149334092 15.4948581702 -2.8110257367 499.8630554271
-47.0443927720 28.1744303480 499.4935104222 15.4541932711 -2.8168686876 499.7404664350
-47.4006331787 28.1744303480 499.3785200632 15.4504479250 -2.7606381583 499.6251032170
-47.7568735853 28.1744303480 499.2147908865 15.4108387036 -2.8075965115 499.4604929197
-48.1131139919 28.1744303480 498.9640020723 15.3804147518 -2.9856744626 499.2099225516
-48.4693543985 28.1744303480 498.7017114338 15.2794843191 -3.0249191035 498.9448965203
-48.8255948052 28.1744303480 498.4182816589 15.2038654100 -3.0501887720 498.6594475860
-49.1818352118 28.1744303480 498.3008364612 15.0776126914 -3.0157326143 498.5380152663
-49.5380756184 28.1744303480 498.2834510190 14.8521095700 -2.9839054850 498.5136772547
-49.8943160251 28.1744303480 498.2153183662 14.6456899852 -2.8762357407 498.4388351864
-50.2505564317 28.1744303480 498.0571961839 14.5242720144 -2.6555619690 498.2760049988
-50.6067968383 28.1744303480 497.9906627210 14.4149601764 -2.4456937592 498.2052515301
-50.9630372450 28.1744303480 497.8909568422 14.4036793758 -2.2850160314 498.1044992600
-51.3192776516 28.1744303480 497.7273951663 14.3883406225 -2.1264478982 497.9398618564
-51.6755180582 28.1744303480 497.4637927268 14.3858073199 -1.8664124118 497.6752555851
-52.0317584649 28.1744303480 497.3466944141 14.3297884350 -1.5649713927 497.5555510862
-52.3879988715 28.1744303480 497.2584968282 14.1098962810 -1.3040500699 497.4603525785
-52.7442392781 28.1744303480 497.3830639812 13.8163248441 -1.0092757466 497.5759457661
-53.1004796848 28.1744303480 497.4424810654 13.5102034086 -0.7186816223 497.6264302345
-53.4567200914 28.1744303480 497.3700277777 13.2894589429 -0.5164660524 497.5478077409
-53.8129604980 28.1744303480 497.0931246366 13.1420246904 -0.4789071869 497.2670476977
-54.1692009047 28.1744303480 496.8777523995 13.1246611531 -0.5362238467 497.0513505624
-54.5254413113 28.1744303480 496.7326613953 13.1108035022 -0.5491825664 496.9059585745
33.8221795335 27.8181899413 500.9155618743 19.7486620706 6.0399057793 501.3410917163
33.4659391269 27.8181899413 501.1780148041 19.9835735376 5.7915123849 501.6096962281
33.1096987203 27.8181899413 501.3664729210 20.1388761071 5.5808157964 501.8018134733
32.7534583136 27.8181899413 501.5332226452 20.1787591882 5.3594034753 501.9676074657
32.3972179070 27.8181899413 501.6926486763 20.1385829098 5.1196626733 502.1227810041
32.0409775004 27.8181899413 501.8238988475 20.0155149243 4.8866702848 502.2466782754
31.6847370937 27.8181899413 501.9005285618 19.8566069795 4.6959194089 502.3151173024
31.3284966871 27.8181899413 501.9411016320 19.6772315456 4.6775898879 502.3484276834
30.9722562805 27.8181899413 501.9645258927 19.4822971682 4.8737177705 502.3660998540
30.6160158738 27.8181899413 501.9506683812 19.3144756953 5.1689584443 502.3487240863
30.2597754672 27.8181899413 501.8994040835 19.1819032092 5.5500769828 502.2964867333
29.9035350606 27.8181899413 501.8421066339 19.0869315569 5.9479743994 502.2401709804
29.5472946540 27.8181899413 501.7697487994 19.0778938771 6.2940456347 502.1717453775
29.1910542473 27.8181899413 501.7384693776 19.1870371828 6.5394890651 502.1477859819
28.8348138407 27.8181899413 501.8032693543 19.4100414893 6.5791053579 502.2216198777
28.4785734341 27.8181899413 502.0298951058 19.7355152914 6.4104258241 502.4585552092
28.1223330274 27.8181899413 502.3760666183 20.1258527254 6.0553026882 502.8155018985
27.7660926208 27.8181899413 502.7446878313 20.5491299232 5.5778026611 503.1953892532
27.4098522142 27.8181899413 503.0990026262 20.9912685538 5.0287801887 503.5618417128
27.0536118075 27.8181899413 503.4239854263 21.4608227608 4.4418070111 503.9007895068
26.6973714009 27.8181899413 503.7094968766 21.9572826152 3.8051026479 504.2021998263
26.3411309943 27.8181899413 503.9708227567 22.4474805958 3.0891927983 504.4799527110
25.9848905876 27.8181899413 504.1894946175 22.8879341087 2.2276583189 504.7136479946
25.6286501810 27.8181899413 504.2690728835 23.1969370385 1.2291110771 504.8038296891
25.2724097744 27.8181899413 504.2217596248 23.3757483881 0.2166323420 504.7633657680
24.9161693677 27.8181899413 504.1664565275 23.4673522119 -0.6145881051 504.7127006782
24.5599289611 27.8181899413 504.0921049567 23.4873024216 -1.3381300332 504.6407576154
24.2036885545 27.8181899413 504.1018481025 23.4818842299 -1.8934028757 504.6520158702
23.8474481478 27.8181899413 504.1063750679 23.4571309960 -2.3708348556 504.6574038261
23.4912077412 27.8181899413 504.0395614358 23.4816097763 -2.8755798535 504.5944257021
23.1349673346 27.8181899413 503.9689216170 23.5433340358 -3.4505055912 504.5303445008
22.7787269279 27.8181899413 503.9254213584 23.5841284590 -4.1043908778 504.4936941439
22.4224865213 27.8181899413 503.8958566537 23.5990006731 -4.8680059181 504.4716490222
22.0662461147 27.8181899413 503.9004437152 23.5843792179 -5.6508271527 504.4837083266
21.7100057080 27.8181899413 503.9590607587 23.5155507239 -6.3228164036 504.5470186751
21.3537653014 27.8181899413 503.9925754402 23.3943927186 -6.9215330530 504.5827200066
20.9975248948 27.8181899413 504.0085795671 23.2131023115 -7.4389688393 504.5976958465
20.6412844881 27.8181899413 504.0432984130 22.9335060193 -7.8034513946 504.6250947259
20.2850440815 27.8181899413 504.0813686718 22.5581541580 -7.9081227660 504.6478326187
19.9288036749 27.8181899413 504.0087967628 22.0908330738 -7.6429733204 504.5505793886
19.5725632682 27.8181899413 503.6061078808 21.5199735891 -6.8679698833 504.1124776956
19.2163228616 27.8181899413 502.6985094572 20.8099040889 -5.4873878965 503.1589758164
18.8600824550 27.8181899413 501.3630833481 19.9800606266 -3.6546639301 501.7743524089
18.5038420483 27.8181899413 499.9273703216 19.1500580500 -1.7903025126 500.2972171651
18.1476016417 27.8181899413 498.7483798881 18.4651622145 -0.3279526285 499.0901884525
17.7913612351 27.8181899413 497.9483798759 18.0014342984 0.4531458634 498.2738664620
17.4351208284 27.8181899413 497.4704346623 17.7369701385 0.5623226288 497.7868516539
17.0788804218 27.8181899413 497.1963212845 17.6434012875 0.2776462241 497.5093452341
16.7226400152 27.8181899413 497.0311375536 17.6248479668 -0.1573797245 497.3435550322
16.3663996086 27.8181899413 496.8975162352 17.5962362066 -0.5262522309 497.2092578691
16.0101592019 27.8181899413 496.7347348848 17.5283149740 -0.7508053542 497.0444672014
15.6539187953 27.8181899413 496.5128491270 17.4182548057 -0.8496544732 496.8190081523
15.2976783887 27.8181899413 496.2411479810 17.3018340283 -0.8612874446 496.5434243108
14.9414379820 27.8181899413 495.9726378537 17.2072459095 -0.7507757726 496.2716095805
14.5851975754 27.8181899413 495.8063684339 17.1252645038 -0.4566910396 496.1022457424
14.2289571688 27.8181899413 495.7854367049 17.1002166563 0.0921626827 496.0802607969
13.8727167621 27.8181899413 495.8631103295 17.2134959600 0.8054225585 496.1624505486
13.5164763555 27.8181899413 496.0614117567 17.4452399605 1.4881001345 496.3703003538
13.1602359489 27.8181899413 496.4640763893 17.8133218936 2.1046598670 496.7880062715
12.8039955422 27.8181899413 496.9715847859 18.3273936871 2.6061003676 497.3162386280
12.4477551356 27.8181899413 497.4941219566 18.9170618121 3.0026470924 497.8627044663
12.0915147290 27.8181899413 497.9607066064 19.5369006816 3.2918033401 498.3546847191
11.7352743223 27.8181899413 498.3616265961 20.1465089306 3.4045410080 498.7802959070
11.3790339157 27.8181899413 498.6836234903 20.6808677715 3.3256244361 499.1233458847
11.0227935091 27.8181899413 498.9445177290 21.0833249688 3.1908868168 499.3999600744
10.6665531024 27.8181899413 499.2068866155 21.3478504405 3.1505706917 499.6730655723
10.3103126958 27.8181899413 499.5846477149 21.5115728596 3.3286748757 500.0586446366
9.9540722892 27.8181899413 500.0823709411 21.5925646627 3.6745476757 500.5618032525
9.5978318825 27.8181899413 500.7181290367 21.5900301199 4.1382268811 501.2004579690
9.2415914759 27.8181899413 501.3832306871 21.5221418641 4.6792017851 501.8667567532
8.8853510693 27.8181899413 501.9332572380 21.4208112985 5.1454338092 502.4164819822
8.5291106626 27.8181899413 502.2708952988 21.3281841344 5.3916687302 502.7524378802
8.1728702560 27.8181899413 502.3348504568 21.2818874556 5.3995533054 502.8144547376
7.8166298494 27.8181899413 502.1117812778 21.2862290893 5.1910848478 502.5895858538
7.4603894427 27.8181899413 501.6596852131 21.3221339680 4.8259953024 502.1358017466
7.1041490361 27.8181899413 501.0266203814 21.4280928723 4.4574997626 501.5044434490
6.7479086295 27.8181899413 500.2615789339 21.5474958023 4.1596940844 500.7426933942
6.3916682228 27.8181899413 499.3490490104 21.6315424442 4.0049136663 499.8334079566
6.0354278162 27.8181899413 498.2419296215 21.6799993649 4.1175735254 498.7303852956
5.6791874096 27.8181899413 496.8391388374 21.7495741050 4.5297093852 497.3355930571
5.3229470029 27.8181899413 495.1845260110 21.7769127215 5.0738377268 495.6891087746
4.9667065963 27.8181899413 493.5743533570 21.7346522771 5.4351333057 494.0825620030
4.6104661897 27.8181899413 492.3539316795 21.6553011609 5.4285793042 492.8598336057
4.2542257831 27.8181899413 491.7105099054 21.5691178380 5.0643397203 492.2094065868
3.8979853764 27.8181899413 491.6540617803 21.4977155144 4.4320409634 492.1437912079
3.5417449698 27.8181899413 492.0458824116 21.4491754713 3.7395619494 492.5273615244
3.1855045632 27.8181899413 492.8376130401 21.4524612838 3.0482014349 493.3137059257
2.8292641565 27.8181899413 493.8522229069 21.4476359835 2.4701909712 494.3239029248
2.4730237499 27.8181899413 494.9269002297 21.4474578498 1.9615840838 495.3952743328
2.1167833433 27.8181899413 495.9155309679 21.4532267995 1.4938950136 496.3815936531